 Gaussian 16, Revision C.02,
 Gaussian 16:  ES64L-G16RevC.02  7-Dec-2021

 ----------------------------------------------------------------------
 #p freq=raman scale=0.967 guess=read geom=allcheck b3lyp/6-311+G(d,p)
 int=grid=ultrafine EmpiricalDispersion=GD3BJ SCRF=(Solvent=ethanol) sc
 f=(xqc,intrep,maxconventionalcycle=350) nosymm
 ----------------------------------------------------------------------

 Structure from the checkpoint file:  "/scratch1/svicchi/G09-1872022.pbs02/02-freq/IMIDMeOH-CO2_binding-site_index-5-freq.chk"
 ---------------------------------
 IMIDMeOH-CO2_binding-site_index-5
 ---------------------------------
 Charge = -1 Multiplicity = 1

                          Input orientation:
 ---------------------------------------------------------------------
 Center     Atomic      Atomic             Coordinates (Angstroms)
 Number     Number       Type             X           Y           Z
 ---------------------------------------------------------------------
      1          6           0       -2.211625    3.505189    0.419343
      2          7           0       -1.285791    2.753586   -0.149479
      3          6           0       -1.954438    1.681024   -0.713334
      4          6           0       -3.295426    1.789575   -0.480470
      5          1           0       -1.430046    0.906793   -1.251954
      6          7           0       -3.467250    2.956302    0.245034
      7          1           0       -4.137954    1.179894   -0.753005
      8          6           0       -1.909148    4.753837    1.190496
      9          1           0       -2.203765    4.622795    2.239206
     10          1           0       -0.829736    4.898106    1.153966
     11          8           0       -2.523383    5.922963    0.651952
     12          1           0       -3.479993    5.735606    0.751780
     13          6           0       -4.790692    3.457032    0.696358
     14          8           0       -4.789214    4.618241    1.159684
     15          8           0       -5.720721    2.657223    0.549290
 ---------------------------------------------------------------------

 SCF Done:  E(RB3LYP) =  -529.080003918     A.U. after    3 cycles

 Alpha  occ. eigenvalues --  -19.10861 -19.08284 -19.07824 -14.36249 -14.29816
 Alpha  occ. eigenvalues --  -10.30185 -10.22706 -10.21912 -10.19261 -10.18250
 Alpha  occ. eigenvalues --   -1.06626  -1.01484  -1.00059  -0.96911  -0.86676
 Alpha  occ. eigenvalues --   -0.76160  -0.67937  -0.62521  -0.59378  -0.54192
 Alpha  occ. eigenvalues --   -0.50910  -0.47484  -0.45651  -0.44802  -0.44107
 Alpha  occ. eigenvalues --   -0.42945  -0.41856  -0.40065  -0.39500  -0.34637
 Alpha  occ. eigenvalues --   -0.30169  -0.28355  -0.27772  -0.27451  -0.27232
 Alpha  occ. eigenvalues --   -0.25385  -0.23173
 Alpha virt. eigenvalues --   -0.01108   0.01266   0.02761   0.03263   0.03777
 Alpha virt. eigenvalues --    0.04664   0.05370   0.05606   0.06321   0.07022
 Alpha virt. eigenvalues --    0.07914   0.08817   0.09019   0.09213   0.10636

 Mulliken charges:
               1
     1  C    0.188013
     2  N   -0.255081
     3  C   -0.168925
     4  C   -0.025068
     5  H    0.135076
     6  N   -0.134378
     7  H    0.157328
     8  C   -0.478066
     9  H    0.160441
    10  H    0.161978
    11  O   -0.403400
    12  H    0.306284
    13  C    0.421761
    14  O   -0.553681
    15  O   -0.512281
 Sum of Mulliken charges =  -1.00000

 Dipole moment (field-independent basis, Debye):
    X=             19.3181    Y=            -19.5222    Z=             -2.5150  Tot=             27.5795
 Quadrupole moment (field-independent basis, Debye-Ang):
   XX=           -163.5395   YY=           -150.0346   ZZ=            -61.8803
   XY=             74.2655   XZ=             16.4786   YZ=             -9.1885

  Exact polarizability:     131.569       3.708     123.896      -6.097      22.860      88.153
 Approx polarizability:     146.890       6.556     138.808      -5.800      24.914      98.016

                      1                      2                      3
                      A                      A                      A
 Frequencies --     66.4656               131.0256               156.8606
 Red. masses --      9.8541                 4.8084                 6.5883
 Frc consts  --      0.0256                 0.0486                 0.0955
 IR Inten    --      1.1548                 8.8239                 9.7415
 Raman Activ --      1.6730                 2.8502                 3.1588

                      4                      5                      6
                      A                      A                      A
 Frequencies --    210.8141               252.2055               321.8400
 Red. masses --      4.2745                 7.8582                 3.3403
 Frc consts  --      0.1119                 0.2945                 0.2039
 IR Inten    --      2.4730                27.1921                11.7590
 Raman Activ --      2.3129                 0.3189                 2.5703

                      7                      8                      9
                      A                      A                      A
 Frequencies --    383.6697               469.3600               542.3242
 Red. masses --      8.2606                 6.6383                 5.5184
 Frc consts  --      0.7164                 0.8616                 0.9563
 IR Inten    --      1.7258                10.9332                 0.9263
 Raman Activ --      3.1373                10.4419                 2.9422

                     10                     11                     12
                      A                      A                      A
 Frequencies --    630.9512               677.8442               742.0931
 Red. masses --      3.7114                 4.9625                 1.1754
 Frc consts  --      0.8705                 1.3434                 0.3814
 IR Inten    --      1.9158                22.5349               173.2526
 Raman Activ --      1.9285                 5.6019                 3.0516

                     13                     14                     15
                      A                      A                      A
 Frequencies --    759.9513               770.7681               799.3866
 Red. masses --      1.7379                 3.0400                 7.4101
 Frc consts  --      0.5913                 1.0641                 2.7899
 IR Inten    --    122.7764               186.8433                11.5021
 Raman Activ --      5.4220                 5.1588                 3.4862

                     16                     17                     18
                      A                      A                      A
 Frequencies --    807.0559               870.9545               936.5452
 Red. masses --      5.5240                 1.3742                 4.5818
 Frc consts  --      2.1199                 0.6142                 2.3678
 IR Inten    --    140.4232                 2.8766                 6.1432
 Raman Activ --      8.6814                 8.5049                 9.0790

                     19                     20                     21
                      A                      A                      A
 Frequencies --    971.1498              1030.3533              1059.2252
 Red. masses --      1.8837                 6.9956                 1.5451
 Frc consts  --      1.0468                 4.3757                 1.0214
 IR Inten    --     82.1507               187.9674                67.9562
 Raman Activ --      2.6430                27.8595                10.0681

                     22                     23                     24
                      A                      A                      A
 Frequencies --   1133.1853              1183.0971              1207.8024
 Red. masses --      2.2411                 3.7728                 2.1361
 Frc consts  --      1.6955                 3.1114                 1.8360
 IR Inten    --     36.6619                27.5364               297.8845
 Raman Activ --     16.2231                 9.9720                41.5597

                     25                     26                     27
                      A                      A                      A
 Frequencies --   1247.7993              1284.3126              1350.0059
 Red. masses --      1.5311                 8.5455                 4.2826
 Frc consts  --      1.4046                 8.3048                 4.5986
 IR Inten    --    155.2317               607.4410                18.4991
 Raman Activ --     32.0241                36.0754                21.6508

                     28                     29                     30
                      A                      A                      A
 Frequencies --   1378.4588              1426.9440              1453.1113
 Red. masses --      1.2718                 3.4661                 1.3228
 Frc consts  --      1.4238                 4.1582                 1.6457
 IR Inten    --     51.9057                28.9640               194.4942
 Raman Activ --      9.5617                39.0219                13.9812

                     31                     32                     33
                      A                      A                      A
 Frequencies --   1480.4672              1510.3168              1549.0125
 Red. masses --      1.0785                 4.9013                 5.8117
 Frc consts  --      1.3927                 6.5871                 8.2161
 IR Inten    --      5.9581                43.7069                25.1379
 Raman Activ --     17.0161               236.0981                 3.2793

                     34                     35                     36
                      A                      A                      A
 Frequencies --   1710.3268              3004.2692              3111.1863
 Red. masses --     10.5364                 1.0695                 1.0932
 Frc consts  --     18.1594                 5.6871                 6.2346
 IR Inten    --   1072.2434                72.5342                39.6654
 Raman Activ --     12.4097               328.2806               179.6815

                     37                     38                     39
                      A                      A                      A
 Frequencies --   3233.3604              3289.3652              3496.4398
 Red. masses --      1.0950                 1.1016                 1.0665
 Frc consts  --      6.7449                 7.0226                 7.6819
 IR Inten    --     13.2060                 4.8315               620.5357
 Raman Activ --    207.5553               174.7501               153.2420

 - Thermochemistry -
 -------------------
 Temperature   298.150 Kelvin.  Pressure   1.00000 Atm.
 Thermochemistry will use frequencies scaled by 0.9670.

 Molecular mass:   141.03002 amu.
 Principal axes and moments of inertia in atomic units:
                           1         2         3
     Eigenvalues --  1061.063681124.486362102.69170
           X            0.89416   0.41950   0.15654
           Y           -0.34262   0.86611  -0.36395
           Z           -0.28826   0.27180   0.91817
 This molecule is an asymmetric top.
 Rotational symmetry number  1.
 Warning -- assumption of classical behavior for rotation
           may cause significant error
 Rotational temperatures (Kelvin)      0.08163     0.07703     0.04119
 Rotational constants (GHZ):           1.70088     1.60495     0.85830
 Zero-point vibrational energy     269764.9 (Joules/Mol)
                                   64.47537 (Kcal/Mol)
 Warning -- explicit consideration of  10 degrees of freedom as
           vibrations may cause significant error
 Vibrational temperatures:     92.47   182.30   218.24   293.31   350.89
          (Kelvin)            447.78   533.80   653.02   754.53   877.84
                              943.08  1032.47  1057.32  1072.37  1112.18
                             1122.85  1211.76  1303.01  1351.16  1433.53
                             1473.70  1576.60  1646.04  1680.41  1736.06
                             1786.86  1878.26  1917.85  1985.30  2021.71
                             2059.77  2101.30  2155.14  2379.57  4179.83
                             4328.59  4498.57  4576.49  4864.59

 Zero-point correction=                           0.102748 (Hartree/Particle)
 Thermal correction to Energy=                    0.111120
 Thermal correction to Enthalpy=                  0.112064
 Thermal correction to Gibbs Free Energy=         0.068946
 Sum of electronic and zero-point Energies=           -528.977256
 Sum of electronic and thermal Energies=              -528.968884
 Sum of electronic and thermal Enthalpies=            -528.967939
 Sum of electronic and thermal Free Energies=         -529.011058

                     E (Thermal)             CV                S
                      KCal/Mol        Cal/Mol-Kelvin    Cal/Mol-Kelvin
 Total                   69.729             30.899             90.751
 Electronic               0.000              0.000              0.000
 Translational            0.889              2.981             40.743
 Rotational               0.889              2.981             29.308
 Vibrational             67.952             24.938             20.700
 Vibration     1          0.597              1.971              4.322
 Vibration     2          0.611              1.926              2.996
 Vibration     3          0.619              1.901              2.651
 Vibration     4          0.640              1.834              2.098
 Vibration     5          0.659              1.773              1.774
 Vibration     6          0.700              1.652              1.356
 Vibration     7          0.743              1.532              1.076
 Vibration     8          0.812              1.352              0.784
 Vibration     9          0.879              1.196              0.600
 Vibration    10          0.969              1.010              0.433

 Optimization completed.
    -- Stationary point found.
 Normal termination of Gaussian 16 at Fri Jan 12 10:39:18 2024.
