 Gaussian 16, Revision C.01,
 Gaussian 16:  ES64L-G16RevC.01  3-Jul-2019

 ----------------------------------------------------------------------
 #p freq=raman scale=0.967 pop=(nbo,full,hirshfeld) guess=read geom=all
 check b3lyp/6-311+G(d,p) int=grid=ultrafine EmpiricalDispersion=GD3BJ
 SCRF=(Solvent=ethanol) scf=(xqc,intrep,maxconventionalcycle=350) nosym
 m
 ----------------------------------------------------------------------

 Structure from the checkpoint file:  "/scratch1/svicchi/G09-709922.pbs02/02-freq/IMID-CO2_binding-site_index-5-freq.chk"
 ---------------------------------
 IMID-CO2_binding-site_index-5.gjf
 ---------------------------------
 Charge = -1 Multiplicity = 1

                          Input orientation:
 ---------------------------------------------------------------------
 Center     Atomic      Atomic             Coordinates (Angstroms)
 Number     Number       Type             X           Y           Z
 ---------------------------------------------------------------------
      1          6           0       -2.273660    3.426842    0.473547
      2          7           0       -1.333611    2.508939    0.351139
      3          6           0       -1.892042    1.521249   -0.445385
      4          6           0       -3.171802    1.862071   -0.793807
      5          1           0       -1.340505    0.633681   -0.715523
      6          7           0       -3.411576    3.086739   -0.200895
      7          1           0       -3.922780    1.373774   -1.388809
      8          1           0       -2.199714    4.348083    1.027299
      9          6           0       -4.668931    3.885294   -0.281526
     10          8           0       -5.562795    3.356867   -0.959650
     11          8           0       -4.629632    4.957355    0.342178
 ---------------------------------------------------------------------

 SCF Done:  E(RB3LYP) =  -414.495761523     A.U. after    2 cycles

 Alpha  occ. eigenvalues --  -19.07176 -19.07135 -14.35730 -14.29691 -10.29245
 Alpha  occ. eigenvalues --  -10.21714 -10.19071 -10.18136  -1.05675  -0.99924
 Alpha  occ. eigenvalues --   -0.96155  -0.86212  -0.73953  -0.62271  -0.58780
 Alpha  occ. eigenvalues --   -0.55935  -0.47548  -0.45171  -0.44039  -0.43159
 Alpha  occ. eigenvalues --   -0.40931  -0.40768  -0.39196  -0.29489  -0.27894
 Alpha  occ. eigenvalues --   -0.26673  -0.26604  -0.24849  -0.23222
 Alpha virt. eigenvalues --   -0.00417   0.01362   0.03368   0.03779   0.04149
 Alpha virt. eigenvalues --    0.05432   0.05540   0.05987   0.06874   0.08823
 Alpha virt. eigenvalues --    0.09346   0.10020   0.10033   0.10225   0.12084

 Mulliken charges:
               1
     1  C   -0.021598
     2  N   -0.312564
     3  C   -0.216475
     4  C   -0.093899
     5  H    0.137904
     6  N   -0.133860
     7  H    0.155350
     8  H    0.156421
     9  C    0.420305
    10  O   -0.541807
    11  O   -0.549777
 Sum of Mulliken charges =  -1.00000

 Dipole moment (field-independent basis, Debye):
    X=             20.1775    Y=            -18.8186    Z=              0.3128  Tot=             27.5929
 Quadrupole moment (field-independent basis, Debye-Ang):
   XX=           -156.2569   YY=           -125.7513   ZZ=            -51.0071
   XY=             85.3853   XZ=             -7.2354   YZ=              2.2270

  Exact polarizability:     104.969     -10.605      95.633      14.622      17.830      72.548
 Approx polarizability:     116.672      -7.146     109.586      18.902      23.682      83.888

 Summary of Natural Population Analysis:

                                       Natural Population
                Natural  -----------------------------------------------
    Atom  No    Charge         Core      Valence    Rydberg      Total
 -----------------------------------------------------------------------
      C    1    0.21118      1.99935     3.75522    0.03425     5.78882
      N    2   -0.56368      1.99948     5.53950    0.02471     7.56368
      C    3   -0.10054      1.99921     4.07273    0.02860     6.10054
      C    4   -0.07058      1.99917     4.04855    0.02286     6.07058
      H    5    0.20352      0.00000     0.79516    0.00132     0.79648
      N    6   -0.48086      1.99922     5.45477    0.02687     7.48086
      H    7    0.23004      0.00000     0.76832    0.00164     0.76996
      H    8    0.20992      0.00000     0.78850    0.00158     0.79008
      C    9    0.91868      1.99960     3.02206    0.05966     5.08132
      O   10   -0.77770      1.99976     6.76567    0.01227     8.77770
      O   11   -0.77997      1.99976     6.76823    0.01198     8.77997
 =======================================================================
   * Total *   -1.00000     15.99554    41.77873    0.22573    58.00000

                      1                      2                      3
                      A                      A                      A
 Frequencies --     82.3254               162.5055               221.3161
 Red. masses --      6.7037                 7.3317                 6.6524
 Frc consts  --      0.0268                 0.1141                 0.1920
 IR Inten    --      1.4514                12.8169                 5.8831
 Raman Activ --      0.0928                 2.8112                 0.4029

                      4                      5                      6
                      A                      A                      A
 Frequencies --    406.0863               545.6669               621.2584
 Red. masses --      9.9153                 8.0413                 3.2775
 Frc consts  --      0.9634                 1.4107                 0.7453
 IR Inten    --      3.1235                 2.7168                 6.2223
 Raman Activ --      6.2196                 2.2105                 1.2485

                      7                      8                      9
                      A                      A                      A
 Frequencies --    672.6631               757.3346               765.4982
 Red. masses --      3.5423                 1.2425                13.2508
 Frc consts  --      0.9444                 0.4199                 4.5749
 IR Inten    --     26.4409                74.4163               346.5689
 Raman Activ --      0.2768                 6.9909                 4.8884

                     10                     11                     12
                      A                      A                      A
 Frequencies --    799.1841               843.3334               869.9425
 Red. masses --      8.5251                 1.4210                 1.4231
 Frc consts  --      3.2081                 0.5955                 0.6346
 IR Inten    --     46.4482                28.2878                 0.3045
 Raman Activ --      2.1103                 3.8281                 5.5344

                     13                     14                     15
                      A                      A                      A
 Frequencies --    926.1534              1034.5821              1046.7702
 Red. masses --      6.0899                 3.7907                 1.4426
 Frc consts  --      3.0777                 2.3905                 0.9313
 IR Inten    --     10.9431                19.4126               232.7684
 Raman Activ --      4.4728                28.4487                 8.7170

                     16                     17                     18
                      A                      A                      A
 Frequencies --   1116.5830              1186.1572              1260.8889
 Red. masses --      1.9181                 3.2177                 1.4825
 Frc consts  --      1.4090                 2.6673                 1.3887
 IR Inten    --     25.3738               312.8895                37.1660
 Raman Activ --     13.7533                48.8584                22.0553

                     19                     20                     21
                      A                      A                      A
 Frequencies --   1290.1497              1346.6821              1360.3455
 Red. masses --      9.2476                 9.2924                 4.3742
 Frc consts  --      9.0690                 9.9290                 4.7692
 IR Inten    --    693.1498                 3.0931                 2.0800
 Raman Activ --     27.7833                44.9731                48.1947

                     22                     23                     24
                      A                      A                      A
 Frequencies --   1496.8636              1526.5691              1714.4031
 Red. masses --      3.7149                 4.2567                12.8086
 Frc consts  --      4.9041                 5.8447                22.1809
 IR Inten    --     42.6137                13.3559              1148.4033
 Raman Activ --     65.7776                19.3514                14.5339

                     25                     26                     27
                      A                      A                      A
 Frequencies --   3231.0272              3263.5671              3286.6926
 Red. masses --      1.0946                 1.0971                 1.1018
 Frc consts  --      6.7329                 6.8847                 7.0127
 IR Inten    --     12.4941                 0.5892                 4.7456
 Raman Activ --    188.9161               111.8103               181.3860

 - Thermochemistry -
 -------------------
 Temperature   298.150 Kelvin.  Pressure   1.00000 Atm.
 Thermochemistry will use frequencies scaled by 0.9670.

 Molecular mass:   111.01945 amu.
 Principal axes and moments of inertia in atomic units:
                           1         2         3
     Eigenvalues --   332.873631051.943131384.81670
           X            0.84880   0.39996  -0.34579
           Y           -0.52507   0.71435  -0.46261
           Z            0.06199   0.57422   0.81635
 This molecule is an asymmetric top.
 Rotational symmetry number  1.
 Rotational temperatures (Kelvin)      0.26020     0.08234     0.06255
 Rotational constants (GHZ):           5.42170     1.71563     1.30323
 Zero-point vibrational energy     184129.3 (Joules/Mol)
                                   44.00795 (Kcal/Mol)
 Warning -- explicit consideration of   6 degrees of freedom as
           vibrations may cause significant error
 Vibrational temperatures:    114.54   226.09   307.92   564.99   759.18
          (Kelvin)            864.36   935.87  1053.68  1065.04  1111.90
                             1173.33  1210.35  1288.55  1439.41  1456.37
                             1553.50  1650.30  1754.27  1794.98  1873.64
                             1892.64  2082.58  2123.91  2385.24  4495.32
                             4540.59  4572.77

 Zero-point correction=                           0.070131 (Hartree/Particle)
 Thermal correction to Energy=                    0.076388
 Thermal correction to Enthalpy=                  0.077332
 Thermal correction to Gibbs Free Energy=         0.039163
 Sum of electronic and zero-point Energies=           -414.425630
 Sum of electronic and thermal Energies=              -414.419373
 Sum of electronic and thermal Enthalpies=            -414.418429
 Sum of electronic and thermal Free Energies=         -414.456599

                     E (Thermal)             CV                S
                      KCal/Mol        Cal/Mol-Kelvin    Cal/Mol-Kelvin
 Total                   47.934             22.358             80.335
 Electronic               0.000              0.000              0.000
 Translational            0.889              2.981             40.030
 Rotational               0.889              2.981             27.674
 Vibrational             46.157             16.396             12.631
 Vibration     1          0.600              1.963              3.900
 Vibration     2          0.621              1.895              2.584
 Vibration     3          0.644              1.820              2.009
 Vibration     4          0.760              1.486              0.990
 Vibration     5          0.883              1.189              0.592
 Vibration     6          0.959              1.030              0.448

 Optimization completed.
    -- Stationary point found.
 Normal termination of Gaussian 16 at Mon Jun 12 09:56:35 2023.
