 Gaussian 16, Revision C.02,
 Gaussian 16:  ES64L-G16RevC.02  7-Dec-2021

 ----------------------------------------------------------------------
 #p freq=raman scale=0.967 guess=read geom=allcheck b3lyp/6-311+G(d,p)
 int=grid=ultrafine EmpiricalDispersion=GD3BJ SCRF=(Solvent=ethanol) sc
 f=(xqc,intrep,maxconventionalcycle=350) nosymm
 ----------------------------------------------------------------------

 Structure from the checkpoint file:  "/scratch1/svicchi/G09-1734050.pbs02/02-freq/PyrB-isolated-freq.chk"
 -------------
 PyrB-isolated
 -------------
 Charge = -1 Multiplicity = 1

                          Input orientation:
 ---------------------------------------------------------------------
 Center     Atomic      Atomic             Coordinates (Angstroms)
 Number     Number       Type             X           Y           Z
 ---------------------------------------------------------------------
      1          6           0       -0.255026    0.786483    0.267423
      2          6           0       -1.080560   -0.203272   -0.309113
      3          6           0       -0.173642   -1.250298   -0.749607
      4          6           0       -2.472070   -0.352779   -0.517273
      5          6           0        1.116897   -0.797237   -0.398989
      6          7           0        1.055208    0.420522    0.207306
      7          1           0       -0.554510    1.727641    0.712577
      8          1           0        2.064806   -1.296309   -0.560171
      9          6           0       -0.695281   -2.404471   -1.380408
     10          6           0       -2.060127   -2.519096   -1.568775
     11          1           0       -0.030624   -3.196308   -1.715723
     12          6           0       -2.948897   -1.492991   -1.136872
     13          1           0       -3.163149    0.421078   -0.193620
     14          1           0       -2.467128   -3.401514   -2.052066
     15          1           0       -4.014998   -1.614379   -1.299829
 ---------------------------------------------------------------------

 SCF Done:  E(RB3LYP) =  -363.445443333     A.U. after    1 cycles

 Alpha  occ. eigenvalues --  -14.26595 -10.15297 -10.15296 -10.14821 -10.14777
 Alpha  occ. eigenvalues --  -10.14140 -10.14139 -10.13678 -10.13641  -0.90363
 Alpha  occ. eigenvalues --   -0.81550  -0.73047  -0.71027  -0.65866  -0.58865
 Alpha  occ. eigenvalues --   -0.55260  -0.52811  -0.48249  -0.44296  -0.43081
 Alpha  occ. eigenvalues --   -0.40763  -0.38158  -0.37389  -0.36557  -0.33799
 Alpha  occ. eigenvalues --   -0.31213  -0.30487  -0.25235  -0.23923  -0.20586
 Alpha  occ. eigenvalues --   -0.15587
 Alpha virt. eigenvalues --   -0.00481   0.01366   0.02797   0.02817   0.03935
 Alpha virt. eigenvalues --    0.04048   0.04843   0.04922   0.05796   0.07683
 Alpha virt. eigenvalues --    0.07757   0.07808   0.07970   0.09916   0.10682

 Mulliken charges:
               1
     1  C   -0.411235
     2  C    0.614797
     3  C    0.614327
     4  C   -0.736778
     5  C   -0.410499
     6  N   -0.266681
     7  H    0.090843
     8  H    0.090808
     9  C   -0.737023
    10  C   -0.159824
    11  H    0.115039
    12  C   -0.159830
    13  H    0.115038
    14  H    0.120511
    15  H    0.120507
 Sum of Mulliken charges =  -1.00000

 Dipole moment (field-independent basis, Debye):
    X=             -0.5227    Y=              1.0805    Z=              0.9947  Tot=              1.5589
 Quadrupole moment (field-independent basis, Debye-Ang):
   XX=            -64.8248   YY=            -61.0430   ZZ=            -62.8903
   XY=             -7.2042   XZ=             -3.8041   YZ=             -0.1323

  Exact polarizability:     200.039      21.612     167.161      21.046      39.109     115.234
 Approx polarizability:     232.602      21.244     194.631      23.193      48.877     128.351

                      1                      2                      3
                      A                      A                      A
 Frequencies --    205.6961               244.4495               393.5995
 Red. masses --      5.7180                 3.5437                 4.0959
 Frc consts  --      0.1425                 0.1248                 0.3739
 IR Inten    --      0.9898                 0.0001                 5.3794
 Raman Activ --      0.9728                 1.9780                 5.3126

                      4                      5                      6
                      A                      A                      A
 Frequencies --    431.0014               547.0153               583.7358
 Red. masses --      2.7493                 7.0522                 3.2306
 Frc consts  --      0.3009                 1.2433                 0.6486
 IR Inten    --     20.6030                 3.0473                 0.0003
 Raman Activ --      1.3932                19.4382                 3.5714

                      7                      8                      9
                      A                      A                      A
 Frequencies --    612.8194               662.2848               698.6258
 Red. masses --      6.5271                 5.6994                 1.3649
 Frc consts  --      1.4442                 1.4729                 0.3925
 IR Inten    --      1.2704                29.9027                 0.0825
 Raman Activ --     33.1878                 6.3411                54.0437

                     10                     11                     12
                      A                      A                      A
 Frequencies --    714.9249               746.3916               760.2549
 Red. masses --      1.1074                 1.3597                 4.1701
 Frc consts  --      0.3335                 0.4463                 1.4201
 IR Inten    --     11.4916               230.7461                 2.3530
 Raman Activ --     67.5480                 1.3513                30.3278

                     13                     14                     15
                      A                      A                      A
 Frequencies --    760.9721               835.1306               897.4859
 Red. masses --      4.7398                 1.5258                 5.1194
 Frc consts  --      1.6172                 0.6270                 2.4295
 IR Inten    --      5.1506                 0.0022                 1.4996
 Raman Activ --     55.3691                11.5126                 2.3288

                     16                     17                     18
                      A                      A                      A
 Frequencies --    912.9062               936.7786               961.3211
 Red. masses --      3.9419                 1.3669                 1.2362
 Frc consts  --      1.9356                 0.7068                 0.6731
 IR Inten    --     58.1197                 2.7779                 0.0001
 Raman Activ --     16.7627                12.8229                 2.5601

                     19                     20                     21
                      A                      A                      A
 Frequencies --   1009.3167              1122.5970              1128.1163
 Red. masses --      2.3271                 1.9355                 1.6164
 Frc consts  --      1.3967                 1.4371                 1.2120
 IR Inten    --     55.7432                34.0239                 0.4504
 Raman Activ --    141.3915                49.2249                 6.5244

                     22                     23                     24
                      A                      A                      A
 Frequencies --   1159.0347              1214.4279              1243.3464
 Red. masses --      1.1348                 1.4797                 1.8982
 Frc consts  --      0.8981                 1.2858                 1.7289
 IR Inten    --      5.1917                 6.8100                15.8082
 Raman Activ --     34.6661                 1.5865                47.3253

                     25                     26                     27
                      A                      A                      A
 Frequencies --   1258.1522              1289.7912              1350.9501
 Red. masses --      7.2147                 3.2209                 4.5385
 Frc consts  --      6.7287                 3.1569                 4.8803
 IR Inten    --     21.8955                88.7796                62.9417
 Raman Activ --    106.3791                10.4179               240.7247

                     28                     29                     30
                      A                      A                      A
 Frequencies --   1363.8788              1428.4482              1479.3715
 Red. masses --      1.7126                 2.9087                 3.0450
 Frc consts  --      1.8770                 3.4969                 3.9264
 IR Inten    --     12.3516                22.7299                 0.0939
 Raman Activ --      0.0906               221.3951               281.0214

                     31                     32                     33
                      A                      A                      A
 Frequencies --   1506.0380              1564.2649              1619.2480
 Red. masses --      3.2451                 4.9432                 5.9291
 Frc consts  --      4.3366                 7.1265                 9.1594
 IR Inten    --      0.0541                20.1645                 0.1042
 Raman Activ --     17.9143               109.9268                 0.5936

                     34                     35                     36
                      A                      A                      A
 Frequencies --   3130.9864              3134.6326              3151.1412
 Red. masses --      1.0848                 1.0870                 1.0918
 Frc consts  --      6.2659                 6.2929                 6.3873
 IR Inten    --     33.5375                 0.7662                91.9285
 Raman Activ --     15.6024               439.9254               191.1819

                     37                     38                     39
                      A                      A                      A
 Frequencies --   3166.7671              3170.2898              3175.2521
 Red. masses --      1.0959                 1.0903                 1.0949
 Frc consts  --      6.4755                 6.4564                 6.5042
 IR Inten    --     77.4521                91.9452                 7.1039
 Raman Activ --    579.5220               152.3561               552.3811

 - Thermochemistry -
 -------------------
 Temperature   298.150 Kelvin.  Pressure   1.00000 Atm.
 Thermochemistry will use frequencies scaled by 0.9670.

 Molecular mass:   116.05002 amu.
 Principal axes and moments of inertia in atomic units:
                           1         2         3
     Eigenvalues --   454.302091111.157351565.45936
           X            0.77692  -0.62386  -0.08481
           Y            0.52955   0.72036  -0.44795
           Z            0.34055   0.30311   0.89003
 This molecule is an asymmetric top.
 Rotational symmetry number  1.
 Warning -- assumption of classical behavior for rotation
           may cause significant error
 Rotational temperatures (Kelvin)      0.19065     0.07795     0.05533
 Rotational constants (GHZ):           3.97256     1.62420     1.15285
 Zero-point vibrational energy     292502.4 (Joules/Mol)
                                   69.90976 (Kcal/Mol)
 Warning -- explicit consideration of   7 degrees of freedom as
           vibrations may cause significant error
 Vibrational temperatures:    286.18   340.10   547.61   599.65   761.06
          (Kelvin)            812.15   852.61   921.44   972.00   994.67
                             1038.45  1057.74  1058.74  1161.92  1248.67
                             1270.12  1303.34  1337.48  1404.26  1561.87
                             1569.55  1612.56  1689.63  1729.86  1750.46
                             1794.48  1879.57  1897.56  1987.40  2058.25
                             2095.35  2176.36  2252.86  4356.13  4361.21
                             4384.17  4405.91  4410.82  4417.72

 Zero-point correction=                           0.111408 (Hartree/Particle)
 Thermal correction to Energy=                    0.117687
 Thermal correction to Enthalpy=                  0.118631
 Thermal correction to Gibbs Free Energy=         0.081097
 Sum of electronic and zero-point Energies=           -363.334035
 Sum of electronic and thermal Energies=              -363.327757
 Sum of electronic and thermal Enthalpies=            -363.326813
 Sum of electronic and thermal Free Energies=         -363.364346

                     E (Thermal)             CV                S
                      KCal/Mol        Cal/Mol-Kelvin    Cal/Mol-Kelvin
 Total                   73.849             26.274             78.996
 Electronic               0.000              0.000              0.000
 Translational            0.889              2.981             40.162
 Rotational               0.889              2.981             28.160
 Vibrational             72.072             20.312             10.675
 Vibration     1          0.637              1.841              2.143
 Vibration     2          0.655              1.785              1.830
 Vibration     3          0.750              1.512              1.037
 Vibration     4          0.780              1.434              0.903
 Vibration     5          0.884              1.186              0.590
 Vibration     6          0.920              1.108              0.515
 Vibration     7          0.950              1.048              0.463

 Optimization completed.
    -- Stationary point found.
 Normal termination of Gaussian 16 at Thu Dec 14 13:05:14 2023.
