 Gaussian 16, Revision C.01,
 Gaussian 16:  ES64L-G16RevC.01  3-Jul-2019

 ----------------------------------------------------------------------
 #p freq=raman scale=0.967 pop=(nbo,full,hirshfeld) guess=read geom=all
 check b3lyp/6-311+G(d,p) int=grid=ultrafine EmpiricalDispersion=GD3BJ
 SCRF=(Solvent=ethanol) scf=(xqc,intrep,maxconventionalcycle=350) nosym
 m
 ----------------------------------------------------------------------

 Structure from the checkpoint file:  "/scratch1/svicchi/G09-659805.pbs02/02-freq/2methylimidazolide-H_dissociation-site_index-1-freq.chk"
 --------------------------------------------------
 2methylimidazolide-H_dissociation-site_index-1.gjf
 --------------------------------------------------
 Charge =  0 Multiplicity = 1

                          Input orientation:
 ---------------------------------------------------------------------
 Center     Atomic      Atomic             Coordinates (Angstroms)
 Number     Number       Type             X           Y           Z
 ---------------------------------------------------------------------
      1          7           0       -1.154923   -0.042562    0.002571
      2          7           0        0.950627   -0.704042    0.014630
      3          6           0       -0.357175   -1.097364    0.010318
      4          6           0       -0.781045   -2.526644    0.013949
      5          6           0       -0.326642    1.065707    0.001906
      6          6           0        0.985526    0.676087    0.009308
      7          1           0       -0.405830   -3.056151   -0.866388
      8          1           0       -0.411436   -3.049999    0.900303
      9          1           0       -1.869208   -2.576545    0.010641
     10          1           0       -0.722976    2.069003   -0.003824
     11          1           0        1.910698    1.226841    0.011327
     12          1           0        1.753669   -1.315045    0.020713
 ---------------------------------------------------------------------

 SCF Done:  E(RB3LYP) =  -265.641802571     A.U. after    2 cycles

 Alpha  occ. eigenvalues --  -14.36886 -14.29991 -10.23700 -10.20196 -10.18716
 Alpha  occ. eigenvalues --  -10.17720  -1.02123  -0.87462  -0.78151  -0.69990
 Alpha  occ. eigenvalues --   -0.61348  -0.59688  -0.53494  -0.45755  -0.45110
 Alpha  occ. eigenvalues --   -0.44001  -0.40817  -0.40053  -0.39296  -0.29267
 Alpha  occ. eigenvalues --   -0.28678  -0.23442
 Alpha virt. eigenvalues --    0.00346   0.01153   0.02266   0.03176   0.04131
 Alpha virt. eigenvalues --    0.04643   0.04990   0.05532   0.06861   0.08059
 Alpha virt. eigenvalues --    0.08427   0.09098   0.10389   0.11862   0.12597

 Mulliken charges:
               1
     1  N   -0.299437
     2  N   -0.198287
     3  C    0.269225
     4  C   -0.698885
     5  C   -0.055331
     6  C   -0.124062
     7  H    0.164780
     8  H    0.164720
     9  H    0.167847
    10  H    0.137731
    11  H    0.149602
    12  H    0.322097
 Sum of Mulliken charges =  -0.00000

 Dipole moment (field-independent basis, Debye):
    X=              4.4621    Y=             -2.2859    Z=              0.0291  Tot=              5.0137
 Quadrupole moment (field-independent basis, Debye-Ang):
   XX=            -35.8055   YY=            -27.7816   ZZ=            -38.6974
   XY=             -1.2187   XZ=              0.0520   YZ=             -0.0657

  Exact polarizability:      84.419       2.747      90.946       0.128      -0.133      53.595
 Approx polarizability:     101.691      -0.923     100.380       0.191      -0.161      59.938

 Summary of Natural Population Analysis:

                                       Natural Population
                Natural  -----------------------------------------------
    Atom  No    Charge         Core      Valence    Rydberg      Total
 -----------------------------------------------------------------------
      N    1   -0.56559      1.99941     5.54303    0.02315     7.56559
      N    2   -0.54256      1.99930     5.52950    0.01376     7.54256
      C    3    0.37878      1.99934     3.58983    0.03205     5.62122
      C    4   -0.62178      1.99929     4.61360    0.00890     6.62178
      C    5   -0.09567      1.99921     4.06799    0.02847     6.09567
      C    6   -0.08704      1.99920     4.06530    0.02254     6.08704
      H    7    0.22213      0.00000     0.77645    0.00142     0.77787
      H    8    0.22212      0.00000     0.77646    0.00142     0.77788
      H    9    0.22938      0.00000     0.76898    0.00165     0.77062
      H   10    0.20660      0.00000     0.79207    0.00133     0.79340
      H   11    0.22430      0.00000     0.77423    0.00147     0.77570
      H   12    0.42931      0.00000     0.56873    0.00196     0.57069
 =======================================================================
   * Total *    0.00000     11.99575    31.86615    0.13810    44.00000

                      1                      2                      3
                      A                      A                      A
 Frequencies --     47.2256               250.3544               354.0462
 Red. masses --      1.0667                 3.0916                 2.5944
 Frc consts  --      0.0014                 0.1142                 0.1916
 IR Inten    --      0.6677                11.1301                 8.8798
 Raman Activ --      0.7241                 3.5019                 1.7156

                      4                      5                      6
                      A                      A                      A
 Frequencies --    560.1361               643.3562               681.7535
 Red. masses --      1.4373                 2.3739                 4.2616
 Frc consts  --      0.2657                 0.5789                 1.1670
 IR Inten    --    123.0388                24.4936                 0.3090
 Raman Activ --      0.0161                 0.7101                13.6643

                      7                      8                      9
                      A                      A                      A
 Frequencies --    691.8040               737.5145               861.3879
 Red. masses --      3.1948                 1.3149                 1.3403
 Frc consts  --      0.9009                 0.4214                 0.5859
 IR Inten    --      5.5084                85.2402                10.2088
 Raman Activ --      2.7299                 6.9847                 7.5844

                     10                     11                     12
                      A                      A                      A
 Frequencies --    939.1090               975.8476              1008.2794
 Red. masses --      6.7711                 1.7819                 2.0214
 Frc consts  --      3.5184                 0.9998                 1.2108
 IR Inten    --      2.0243                 5.8314                14.2722
 Raman Activ --      6.2621                 0.7719                12.4350

                     13                     14                     15
                      A                      A                      A
 Frequencies --   1061.0733              1098.0426              1135.0548
 Red. masses --      1.4944                 1.4648                 1.8954
 Frc consts  --      0.9913                 1.0405                 1.4387
 IR Inten    --      2.8979                48.4792                 7.4517
 Raman Activ --      0.1181                 2.7914                45.7422

                     16                     17                     18
                      A                      A                      A
 Frequencies --   1169.9577              1278.9456              1377.5876
 Red. masses --      3.3097                 1.9137                 2.4974
 Frc consts  --      2.6692                 1.8443                 2.7924
 IR Inten    --      9.5552                26.3735                 1.8755
 Raman Activ --     16.5323                10.5395                26.6413

                     19                     20                     21
                      A                      A                      A
 Frequencies --   1413.0474              1433.6327              1470.8049
 Red. masses --      1.3854                 2.0196                 1.0407
 Frc consts  --      1.6298                 2.4456                 1.3265
 IR Inten    --      1.5533                82.5593                13.0368
 Raman Activ --     14.7229                 2.7584                15.5889

                     22                     23                     24
                      A                      A                      A
 Frequencies --   1487.9151              1512.9596              1588.2647
 Red. masses --      1.5636                 3.0895                 3.9469
 Frc consts  --      2.0396                 4.1667                 5.8662
 IR Inten    --      9.0402                12.6348                65.2506
 Raman Activ --     86.4617               131.2949                14.1146

                     25                     26                     27
                      A                      A                      A
 Frequencies --   3032.7151              3081.4558              3133.2670
 Red. masses --      1.0386                 1.1011                 1.0990
 Frc consts  --      5.6282                 6.1600                 6.3571
 IR Inten    --     34.5453                19.4583                11.8780
 Raman Activ --    452.6777               172.4693               125.8222

                     28                     29                     30
                      A                      A                      A
 Frequencies --   3237.8120              3274.1512              3640.0563
 Red. masses --      1.0936                 1.1040                 1.0819
 Frc consts  --      6.7549                 6.9729                 8.4462
 IR Inten    --      8.3526                 1.2769               118.3280
 Raman Activ --    150.4605               217.9307               208.8865

 - Thermochemistry -
 -------------------
 Temperature   298.150 Kelvin.  Pressure   1.00000 Atm.
 Thermochemistry will use frequencies scaled by 0.9670.

 Molecular mass:    82.05310 amu.
 Principal axes and moments of inertia in atomic units:
                           1         2         3
     Eigenvalues --   201.88099 503.29616 693.94369
           X            0.31684   0.94847  -0.00449
           Y            0.94848  -0.31682   0.00393
           Z           -0.00230   0.00551   0.99998
 This molecule is an asymmetric top.
 Rotational symmetry number  1.
 Rotational temperatures (Kelvin)      0.42903     0.17209     0.12481
 Rotational constants (GHZ):           8.93963     3.58584     2.60070
 Zero-point vibrational energy     249736.6 (Joules/Mol)
                                   59.68848 (Kcal/Mol)
 Warning -- explicit consideration of   4 degrees of freedom as
           vibrations may cause significant error
 Vibrational temperatures:     65.70   348.32   492.58   779.32   895.10
          (Kelvin)            948.52   962.51  1026.10  1198.45  1306.58
                             1357.69  1402.82  1476.27  1527.70  1579.20
                             1627.76  1779.39  1916.63  1965.97  1994.61
                             2046.33  2070.13  2104.98  2209.75  4219.41
                             4287.22  4359.31  4504.76  4555.32  5064.40

 Zero-point correction=                           0.095120 (Hartree/Particle)
 Thermal correction to Energy=                    0.100752
 Thermal correction to Enthalpy=                  0.101696
 Thermal correction to Gibbs Free Energy=         0.065677
 Sum of electronic and zero-point Energies=           -265.546683
 Sum of electronic and thermal Energies=              -265.541051
 Sum of electronic and thermal Enthalpies=            -265.540107
 Sum of electronic and thermal Free Energies=         -265.576126

                     E (Thermal)             CV                S
                      KCal/Mol        Cal/Mol-Kelvin    Cal/Mol-Kelvin
 Total                   63.223             20.077             75.809
 Electronic               0.000              0.000              0.000
 Translational            0.889              2.981             39.128
 Rotational               0.889              2.981             25.759
 Vibrational             61.445             14.115             10.922
 Vibration     1          0.595              1.979              4.997
 Vibration     2          0.658              1.776              1.787
 Vibration     3          0.721              1.591              1.201
 Vibration     4          0.897              1.158              0.562

 Normal termination of Gaussian 16 at Fri Jun  2 11:25:56 2023.
