 Gaussian 16, Revision C.01,
 Gaussian 16:  ES64L-G16RevC.01  3-Jul-2019

 ----------------------------------------------------------------------
 #p freq=raman scale=0.967 pop=(nbo,full,hirshfeld) guess=read geom=all
 check b3lyp/6-311+G(d,p) int=grid=ultrafine EmpiricalDispersion=GD3BJ
 SCRF=(Solvent=ethanol) scf=(xqc,intrep,maxconventionalcycle=350) nosym
 m
 ----------------------------------------------------------------------

 Structure from the checkpoint file:  "/scratch1/svicchi/G09-659906.pbs02/02-freq/TDA-isolated-freq.chk"
 ----------------
 TDA-isolated.gjf
 ----------------
 Charge =  0 Multiplicity = 1

                          Input orientation:
 ---------------------------------------------------------------------
 Center     Atomic      Atomic             Coordinates (Angstroms)
 Number     Number       Type             X           Y           Z
 ---------------------------------------------------------------------
      1          6           0       -3.567810    0.810514    0.119556
      2          6           0       -2.291492    1.643448    0.040213
      3          6           0       -1.036667    0.787790   -0.108983
      4          1           0       -2.196882    2.258721    0.942627
      5          1           0       -2.369372    2.333349   -0.808240
      6          7           0       -4.749849    1.676772    0.260509
      7          1           0       -3.473087    0.084400    0.941267
      8          1           0       -3.685898    0.232233   -0.802150
      9          1           0       -4.712945    2.166515    1.150616
     10          1           0       -5.594600    1.113417    0.282914
     11          7           0        0.167188    1.632510   -0.177323
     12          1           0       -1.148326    0.135643   -0.988557
     13          1           0       -0.934917    0.131607    0.761076
     14          1           0        0.143307    2.197255   -1.022312
     15          1           0        0.997279    1.051756   -0.249222
 ---------------------------------------------------------------------

 SCF Done:  E(RB3LYP) =  -229.935024278     A.U. after    1 cycles

 Alpha  occ. eigenvalues --  -14.29648 -14.29646 -10.19201 -10.19200 -10.16327
 Alpha  occ. eigenvalues --   -0.88920  -0.87964  -0.75458  -0.64537  -0.58944
 Alpha  occ. eigenvalues --   -0.50328  -0.47433  -0.46999  -0.46137  -0.41363
 Alpha  occ. eigenvalues --   -0.39622  -0.35507  -0.35152  -0.33770  -0.25116
 Alpha  occ. eigenvalues --   -0.25008
 Alpha virt. eigenvalues --    0.00393   0.01003   0.02552   0.03553   0.04707
 Alpha virt. eigenvalues --    0.06421   0.06997   0.07537   0.08036   0.10625
 Alpha virt. eigenvalues --    0.10769   0.11988   0.13489   0.14626   0.15602

 Mulliken charges:
               1
     1  C   -0.296158
     2  C   -0.137343
     3  C   -0.296029
     4  H    0.132025
     5  H    0.132032
     6  N   -0.511258
     7  H    0.129083
     8  H    0.138808
     9  H    0.228938
    10  H    0.247161
    11  N   -0.511194
    12  H    0.129091
    13  H    0.138774
    14  H    0.228931
    15  H    0.247138
 Sum of Mulliken charges =  -0.00000

 Dipole moment (field-independent basis, Debye):
    X=             -0.0301    Y=             -2.2618    Z=             -0.0970  Tot=              2.2641
 Quadrupole moment (field-independent basis, Debye-Ang):
   XX=            -31.8384   YY=            -41.1537   ZZ=            -32.2182
   XY=              5.4314   XZ=             -7.2578   YZ=             -0.2194

  Exact polarizability:      76.077      -0.052      70.988      -0.396       0.221      65.793
 Approx polarizability:      73.707      -0.006      74.845       0.467       0.128      71.648

 Summary of Natural Population Analysis:

                                       Natural Population
                Natural  -----------------------------------------------
    Atom  No    Charge         Core      Valence    Rydberg      Total
 -----------------------------------------------------------------------
      C    1   -0.18200      1.99930     4.16456    0.01814     6.18200
      C    2   -0.40268      1.99928     4.38520    0.01821     6.40268
      C    3   -0.18200      1.99930     4.16456    0.01814     6.18200
      H    4    0.19463      0.00000     0.80268    0.00268     0.80537
      H    5    0.19461      0.00000     0.80271    0.00268     0.80539
      N    6   -0.87156      1.99954     5.85024    0.02178     7.87156
      H    7    0.16215      0.00000     0.83495    0.00290     0.83785
      H    8    0.18266      0.00000     0.81488    0.00246     0.81734
      H    9    0.35475      0.00000     0.64241    0.00284     0.64525
      H   10    0.36074      0.00000     0.63692    0.00233     0.63926
      N   11   -0.87153      1.99954     5.85021    0.02178     7.87153
      H   12    0.16215      0.00000     0.83495    0.00290     0.83785
      H   13    0.18263      0.00000     0.81491    0.00246     0.81737
      H   14    0.35474      0.00000     0.64242    0.00284     0.64526
      H   15    0.36072      0.00000     0.63694    0.00234     0.63928
 =======================================================================
   * Total *   -0.00000      9.99696    31.87854    0.12450    42.00000

                      1                      2                      3
                      A                      A                      A
 Frequencies --    110.0558               117.0280               187.9288
 Red. masses --      1.8202                 2.5719                 2.5984
 Frc consts  --      0.0130                 0.0208                 0.0541
 IR Inten    --     17.5631                 5.1285                 2.9660
 Raman Activ --      0.4668                 0.0183                 0.2684

                      4                      5                      6
                      A                      A                      A
 Frequencies --    250.0708               263.8442               414.5802
 Red. masses --      1.0872                 1.2092                 4.4550
 Frc consts  --      0.0401                 0.0496                 0.4511
 IR Inten    --     89.3432                41.9182                 0.0004
 Raman Activ --      0.0410                 0.4386                 6.1312

                      7                      8                      9
                      A                      A                      A
 Frequencies --    455.5735               768.4344               838.1068
 Red. masses --      2.8357                 1.0762                 1.1577
 Frc consts  --      0.3468                 0.3744                 0.4791
 IR Inten    --     35.7206                 6.8813               133.8763
 Raman Activ --      0.1219                 0.1431                 3.4938

                     10                     11                     12
                      A                      A                      A
 Frequencies --    874.0824               910.2742               983.8584
 Red. masses --      1.2617                 1.3407                 3.0515
 Frc consts  --      0.5680                 0.6545                 1.7403
 IR Inten    --    177.2768                66.2693                10.9826
 Raman Activ --      4.5121                 7.9791                 0.3103

                     13                     14                     15
                      A                      A                      A
 Frequencies --    989.2683              1059.2292              1081.3335
 Red. masses --      1.8923                 1.9711                 3.1769
 Frc consts  --      1.0911                 1.3030                 2.1886
 IR Inten    --     23.3541                23.5411                 1.5886
 Raman Activ --     12.8746                12.0658                 8.9332

                     16                     17                     18
                      A                      A                      A
 Frequencies --   1108.5717              1180.2229              1220.1927
 Red. masses --      1.5592                 1.4333                 1.4898
 Frc consts  --      1.1289                 1.1763                 1.3069
 IR Inten    --     22.1090                 8.9546                 6.2717
 Raman Activ --      8.6147                 1.6438                 2.2947

                     19                     20                     21
                      A                      A                      A
 Frequencies --   1303.7842              1312.3922              1327.7067
 Red. masses --      1.3155                 1.2338                 1.0606
 Frc consts  --      1.3175                 1.2521                 1.1016
 IR Inten    --      0.4827                 2.8473                 1.0964
 Raman Activ --      3.7364                 1.9025                39.1226

                     22                     23                     24
                      A                      A                      A
 Frequencies --   1352.4358              1423.9951              1429.3808
 Red. masses --      1.2562                 1.3807                 1.5352
 Frc consts  --      1.3537                 1.6495                 1.8480
 IR Inten    --      2.5041                 2.9945                32.2392
 Raman Activ --      0.8738                 2.2362                 0.9760

                     25                     26                     27
                      A                      A                      A
 Frequencies --   1482.7856              1508.0073              1518.4725
 Red. masses --      1.0835                 1.0846                 1.0918
 Frc consts  --      1.4035                 1.4532                 1.4832
 IR Inten    --      1.7467                 4.0189                 2.2475
 Raman Activ --     37.6677                 0.0987                14.1633

                     28                     29                     30
                      A                      A                      A
 Frequencies --   1647.0181              1648.2094              2954.1162
 Red. masses --      1.0870                 1.0873                 1.0709
 Frc consts  --      1.7373                 1.7403                 5.5060
 IR Inten    --     99.3877                 1.1391                65.2362
 Raman Activ --      1.3973                 8.2509               194.1960

                     31                     32                     33
                      A                      A                      A
 Frequencies --   2956.9715              3010.7951              3031.9067
 Red. masses --      1.0738                 1.0584                 1.0913
 Frc consts  --      5.5316                 5.6526                 5.9103
 IR Inten    --    161.7350                56.9363                 1.0076
 Raman Activ --    421.1267               261.3989               335.1142

                     34                     35                     36
                      A                      A                      A
 Frequencies --   3043.4495              3059.5300              3487.8351
 Red. masses --      1.0879                 1.1017                 1.0505
 Frc consts  --      5.9373                 6.0763                 7.5295
 IR Inten    --     44.9151               154.7413                 0.0553
 Raman Activ --    124.9614                 5.1345               312.6552

                     37                     38                     39
                      A                      A                      A
 Frequencies --   3487.9370              3560.3826              3560.5013
 Red. masses --      1.0505                 1.0923                 1.0923
 Frc consts  --      7.5300                 8.1580                 8.1589
 IR Inten    --      0.0848                 2.8313                 2.7269
 Raman Activ --    160.6356               154.6574                98.8456

 - Thermochemistry -
 -------------------
 Temperature   298.150 Kelvin.  Pressure   1.00000 Atm.
 Thermochemistry will use frequencies scaled by 0.9670.

 Molecular mass:    74.08440 amu.
 Principal axes and moments of inertia in atomic units:
                           1         2         3
     Eigenvalues --    93.43783 917.43919 967.03129
           X            0.99443   0.01273   0.10465
           Y           -0.00825   0.99904  -0.04313
           Z           -0.10510   0.04203   0.99357
 This molecule is an asymmetric top.
 Rotational symmetry number  1.
 Rotational temperatures (Kelvin)      0.92697     0.09441     0.08957
 Rotational constants (GHZ):          19.31489     1.96715     1.86627
 Zero-point vibrational energy     352359.4 (Joules/Mol)
                                   84.21593 (Kcal/Mol)
 Warning -- explicit consideration of   7 degrees of freedom as
           vibrations may cause significant error
 Vibrational temperatures:    153.12   162.82   261.46   347.92   367.09
          (Kelvin)            576.80   633.84  1069.12  1166.06  1216.11
                             1266.46  1368.84  1376.37  1473.70  1504.46
                             1542.35  1642.04  1697.65  1813.95  1825.93
                             1847.23  1881.64  1981.20  1988.69  2063.00
                             2098.09  2112.65  2291.49  2293.15  4110.05
                             4114.03  4188.91  4218.28  4234.34  4256.72
                             4852.62  4852.76  4953.55  4953.72

 Zero-point correction=                           0.134207 (Hartree/Particle)
 Thermal correction to Energy=                    0.141224
 Thermal correction to Enthalpy=                  0.142169
 Thermal correction to Gibbs Free Energy=         0.103957
 Sum of electronic and zero-point Energies=           -229.800818
 Sum of electronic and thermal Energies=              -229.793800
 Sum of electronic and thermal Enthalpies=            -229.792856
 Sum of electronic and thermal Free Energies=         -229.831068

                     E (Thermal)             CV                S
                      KCal/Mol        Cal/Mol-Kelvin    Cal/Mol-Kelvin
 Total                   88.620             24.124             80.424
 Electronic               0.000              0.000              0.000
 Translational            0.889              2.981             38.824
 Rotational               0.889              2.981             25.919
 Vibrational             86.842             18.162             15.681
 Vibration     1          0.605              1.944              3.333
 Vibration     2          0.607              1.939              3.214
 Vibration     3          0.630              1.865              2.311
 Vibration     4          0.658              1.776              1.789
 Vibration     5          0.666              1.754              1.695
 Vibration     6          0.767              1.468              0.959
 Vibration     7          0.800              1.382              0.825

 Optimization completed.
    -- Stationary point found.
 Normal termination of Gaussian 16 at Fri Jun  2 11:34:41 2023.
