 Gaussian 16, Revision C.02,
 Gaussian 16:  ES64L-G16RevC.02  7-Dec-2021

 ----------------------------------------------------------------------
 #p freq=raman scale=0.967 guess=read geom=allcheck b3lyp/6-311+G(d,p)
 int=grid=ultrafine EmpiricalDispersion=GD3BJ SCRF=(Solvent=ethanol) sc
 f=(xqc,intrep,maxconventionalcycle=350) nosymm
 ----------------------------------------------------------------------

 Structure from the checkpoint file:  "/scratch1/svicchi/G09-1734052.pbs02/02-freq/PyrB-CO2_binding-site_index-5-freq.chk"
 -----------------------------
 PyrB-CO2_binding-site_index-5
 -----------------------------
 Charge = -1 Multiplicity = 1

                          Input orientation:
 ---------------------------------------------------------------------
 Center     Atomic      Atomic             Coordinates (Angstroms)
 Number     Number       Type             X           Y           Z
 ---------------------------------------------------------------------
      1          6           0       -0.338455    0.752818    0.446175
      2          6           0       -1.091696   -0.217792   -0.208436
      3          6           0       -0.156469   -1.217355   -0.700182
      4          6           0       -2.483617   -0.376489   -0.450977
      5          6           0        1.116315   -0.802004   -0.318717
      6          7           0        0.980281    0.379874    0.366154
      7          1           0       -0.618544    1.659083    0.952984
      8          1           0        2.089231   -1.234048   -0.471788
      9          6           0       -0.643307   -2.343458   -1.418808
     10          6           0       -1.994286   -2.461045   -1.632873
     11          1           0        0.044440   -3.095608   -1.790539
     12          6           0       -2.914672   -1.477403   -1.148832
     13          1           0       -3.190756    0.362319   -0.089032
     14          1           0       -2.381383   -3.313930   -2.179313
     15          1           0       -3.973028   -1.612926   -1.342108
     16          6           0        2.118446    1.158893    0.947294
     17          8           0        1.778701    2.200151    1.530741
     18          8           0        3.234310    0.649247    0.759756
 ---------------------------------------------------------------------

 SCF Done:  E(RB3LYP) =  -552.127137297     A.U. after    1 cycles

 Alpha  occ. eigenvalues --  -19.06993 -19.06990 -14.35938 -10.28949 -10.18300
 Alpha  occ. eigenvalues --  -10.18299 -10.17053 -10.17052 -10.16596 -10.16586
 Alpha  occ. eigenvalues --  -10.16554 -10.16550  -1.05270  -0.96449  -0.95929
 Alpha  occ. eigenvalues --   -0.84210  -0.75612  -0.75572  -0.70184  -0.64378
 Alpha  occ. eigenvalues --   -0.58409  -0.57077  -0.54031  -0.49888  -0.47767
 Alpha  occ. eigenvalues --   -0.45587  -0.44410  -0.43457  -0.43006  -0.42019
 Alpha  occ. eigenvalues --   -0.40378  -0.39349  -0.38842  -0.35892  -0.33684
 Alpha  occ. eigenvalues --   -0.32835  -0.27520  -0.27409  -0.26347  -0.24708
 Alpha  occ. eigenvalues --   -0.23985  -0.18633
 Alpha virt. eigenvalues --   -0.03918   0.01061   0.01918   0.02150   0.02621
 Alpha virt. eigenvalues --    0.02622   0.04263   0.04707   0.05093   0.05611
 Alpha virt. eigenvalues --    0.06790   0.06988   0.07158   0.07594   0.08492

 Mulliken charges:
               1
     1  C   -0.225882
     2  C    0.535408
     3  C    0.535319
     4  C   -0.753106
     5  C   -0.225772
     6  N    0.015405
     7  H    0.144771
     8  H    0.144749
     9  C   -0.753320
    10  C   -0.187894
    11  H    0.131277
    12  C   -0.187887
    13  H    0.131260
    14  H    0.135854
    15  H    0.135843
    16  C    0.483648
    17  O   -0.529795
    18  O   -0.529878
 Sum of Mulliken charges =  -1.00000

 Dipole moment (field-independent basis, Debye):
    X=             -9.3896    Y=             -5.0303    Z=             -4.1475  Tot=             11.4311
 Quadrupole moment (field-independent basis, Debye-Ang):
   XX=           -101.9137   YY=            -84.1627   ZZ=            -81.4258
   XY=            -16.5246   XZ=            -12.8617   YZ=             -6.8849

  Exact polarizability:     223.217      21.766     180.016      26.659      53.403     128.223
 Approx polarizability:     258.182      11.368     212.754      22.937      64.601     146.448

                      1                      2                      3
                      A                      A                      A
 Frequencies --     69.5041                96.8781               169.1590
 Red. masses --      9.0051                 7.2815                 7.6876
 Frc consts  --      0.0256                 0.0403                 0.1296
 IR Inten    --      0.0094                 2.5079                 1.1093
 Raman Activ --      0.1638                 6.9693                 3.9631

                      4                      5                      6
                      A                      A                      A
 Frequencies --    252.3977               256.5320               342.1304
 Red. masses --      3.6490                 6.1723                10.3573
 Frc consts  --      0.1370                 0.2393                 0.7143
 IR Inten    --      0.0361                10.2761                 0.5758
 Raman Activ --      2.1277                 0.0341                 9.6674

                      7                      8                      9
                      A                      A                      A
 Frequencies --    393.0157               438.1953               572.5520
 Red. masses --      5.6287                 2.7757                 5.8879
 Frc consts  --      0.5122                 0.3140                 1.1372
 IR Inten    --      6.6099                27.1502                 3.0010
 Raman Activ --      0.0173                 4.5165                11.1133

                     10                     11                     12
                      A                      A                      A
 Frequencies --    575.2964               592.2521               616.6758
 Red. masses --      3.0304                 6.7229                 6.1035
 Frc consts  --      0.5909                 1.3894                 1.3675
 IR Inten    --      0.0049                 5.6013                 0.6027
 Raman Activ --      1.1248                 3.1062                34.8928

                     13                     14                     15
                      A                      A                      A
 Frequencies --    619.3517               676.9206               731.2393
 Red. masses --      3.4141                 1.3499                 1.2416
 Frc consts  --      0.7716                 0.3645                 0.3912
 IR Inten    --     19.6814                 0.0126                 6.5389
 Raman Activ --      1.2508                21.5284                21.1022

                     16                     17                     18
                      A                      A                      A
 Frequencies --    752.2416               774.8624               775.9208
 Red. masses --     10.0012                 3.2954                 1.6864
 Frc consts  --      3.3344                 1.1658                 0.5982
 IR Inten    --    272.8157                 8.1363               230.0319
 Raman Activ --     21.8968                 5.6053                 2.3812

                     19                     20                     21
                      A                      A                      A
 Frequencies --    804.3894               810.7119               849.0409
 Red. masses --      4.3042                 5.3711                 1.6080
 Frc consts  --      1.6409                 2.0799                 0.6829
 IR Inten    --    142.9153                 0.3364                 0.0002
 Raman Activ --     65.5968                 0.0297                 8.0073

                     22                     23                     24
                      A                      A                      A
 Frequencies --    912.4220               960.0027               984.3599
 Red. masses --      4.8303                 1.3436                 1.2695
 Frc consts  --      2.3693                 0.7296                 0.7248
 IR Inten    --      0.5481                 1.4396                 0.2719
 Raman Activ --      8.3533                14.2425                 3.7701

                     25                     26                     27
                      A                      A                      A
 Frequencies --    984.9049              1020.6878              1063.5206
 Red. masses --      3.5259                 3.2869                 1.7231
 Frc consts  --      2.0152                 2.0175                 1.1483
 IR Inten    --     87.6759               149.4255               503.7673
 Raman Activ --     11.0818               145.7807                48.4298

                     28                     29                     30
                      A                      A                      A
 Frequencies --   1143.9731              1168.6006              1188.1238
 Red. masses --      1.5358                 1.1141                 1.3099
 Frc consts  --      1.1842                 0.8964                 1.0895
 IR Inten    --      2.5760                 1.3583                 2.2356
 Raman Activ --     28.6531                38.3162                 6.3493

                     31                     32                     33
                      A                      A                      A
 Frequencies --   1250.0537              1277.1746              1334.4032
 Red. masses --      2.0245                 6.2493                 3.9127
 Frc consts  --      1.8639                 6.0060                 4.1049
 IR Inten    --      3.1874              1207.9501                 0.0816
 Raman Activ --      4.2938                80.7538                23.3906

                     34                     35                     36
                      A                      A                      A
 Frequencies --   1362.5509              1379.5741              1386.2358
 Red. masses --     10.2910                 4.5982                 1.7411
 Frc consts  --     11.2567                 5.1561                 1.9712
 IR Inten    --     65.9571                 0.5076                 9.2079
 Raman Activ --      8.5777               450.8721                 2.9629

                     37                     38                     39
                      A                      A                      A
 Frequencies --   1446.5274              1493.0329              1548.4083
 Red. masses --      3.3314                 3.5068                 4.1910
 Frc consts  --      4.1070                 4.6058                 5.9202
 IR Inten    --      9.0180                 2.7660                 0.2572
 Raman Activ --    296.2611               492.1873                38.6342

                     40                     41                     42
                      A                      A                      A
 Frequencies --   1571.6061              1655.6142              1711.4587
 Red. masses --      5.3761                 6.4557                12.8120
 Frc consts  --      7.8236                10.4259                22.1106
 IR Inten    --      0.6892                 0.0717              1085.3890
 Raman Activ --    114.2109                39.1476                16.5501

                     43                     44                     45
                      A                      A                      A
 Frequencies --   3154.2338              3160.2034              3171.3419
 Red. masses --      1.0849                 1.0874                 1.0943
 Frc consts  --      6.3595                 6.3982                 6.4845
 IR Inten    --      1.2414                 2.2592                69.3374
 Raman Activ --     58.0116               346.9286               131.0761

                     46                     47                     48
                      A                      A                      A
 Frequencies --   3182.2673              3277.8005              3281.3224
 Red. masses --      1.0969                 1.0939                 1.0980
 Frc consts  --      6.5450                 6.9245                 6.9657
 IR Inten    --     45.4917                 1.0698                 5.7545
 Raman Activ --    721.3987                67.1990               308.0789

 - Thermochemistry -
 -------------------
 Temperature   298.150 Kelvin.  Pressure   1.00000 Atm.
 Thermochemistry will use frequencies scaled by 0.9670.

 Molecular mass:   160.03985 amu.
 Principal axes and moments of inertia in atomic units:
                           1         2         3
     Eigenvalues --   609.123703152.184543761.30572
           X            0.76043  -0.64305  -0.09075
           Y            0.52022   0.68681  -0.50760
           Z            0.38874   0.33879   0.85680
 This molecule is an asymmetric top.
 Rotational symmetry number  1.
 Warning -- assumption of classical behavior for rotation
           may cause significant error
 Rotational temperatures (Kelvin)      0.14219     0.02748     0.02303
 Rotational constants (GHZ):           2.96285     0.57254     0.47982
 Zero-point vibrational energy     331071.1 (Joules/Mol)
                                   79.12789 (Kcal/Mol)
 Warning -- explicit consideration of  13 degrees of freedom as
           vibrations may cause significant error
 Vibrational temperatures:     96.70   134.79   235.35   351.16   356.91
          (Kelvin)            476.01   546.80   609.66   796.59   800.41
                              824.00   857.98   861.70   941.80  1017.37
                             1046.59  1078.06  1079.54  1119.14  1127.94
                             1181.27  1269.45  1335.65  1369.54  1370.30
                             1420.08  1479.67  1591.61  1625.87  1653.03
                             1739.20  1776.93  1856.55  1895.71  1919.40
                             1928.67  2012.55  2077.25  2154.30  2186.57
                             2303.45  2381.15  4388.48  4396.78  4412.28
                             4427.48  4560.40  4565.30

 Zero-point correction=                           0.126098 (Hartree/Particle)
 Thermal correction to Energy=                    0.135159
 Thermal correction to Enthalpy=                  0.136104
 Thermal correction to Gibbs Free Energy=         0.091373
 Sum of electronic and zero-point Energies=           -552.001039
 Sum of electronic and thermal Energies=              -551.991978
 Sum of electronic and thermal Enthalpies=            -551.991034
 Sum of electronic and thermal Free Energies=         -552.035764

                     E (Thermal)             CV                S
                      KCal/Mol        Cal/Mol-Kelvin    Cal/Mol-Kelvin
 Total                   84.814             35.983             94.143
 Electronic               0.000              0.000              0.000
 Translational            0.889              2.981             41.120
 Rotational               0.889              2.981             30.358
 Vibrational             83.036             30.022             22.665
 Vibration     1          0.598              1.970              4.233
 Vibration     2          0.603              1.954              3.582
 Vibration     3          0.623              1.887              2.508
 Vibration     4          0.659              1.773              1.773
 Vibration     5          0.662              1.766              1.744
 Vibration     6          0.713              1.614              1.256
 Vibration     7          0.750              1.513              1.039
 Vibration     8          0.786              1.419              0.879
 Vibration     9          0.909              1.132              0.537
 Vibration    10          0.912              1.126              0.531
 Vibration    11          0.929              1.090              0.499
 Vibration    12          0.954              1.040              0.456
 Vibration    13          0.957              1.034              0.452

 Optimization completed.
    -- Stationary point found.
 Normal termination of Gaussian 16 at Thu Dec 14 13:41:44 2023.
