 Gaussian 16, Revision C.02,
 Gaussian 16:  ES64L-G16RevC.02  7-Dec-2021

 ----------------------------------------------------------------------
 #p freq=raman scale=0.967 guess=read geom=allcheck b3lyp/6-311+G(d,p)
 int=grid=ultrafine EmpiricalDispersion=GD3BJ SCRF=(Solvent=ethanol) sc
 f=(xqc,intrep,maxconventionalcycle=350) nosymm
 ----------------------------------------------------------------------

 Structure from the checkpoint file:  "/scratch1/svicchi/G09-1734048.pbs02/02-freq/PyrOH-isolated-freq.chk"
 --------------
 PyrOH-isolated
 --------------
 Charge = -1 Multiplicity = 1

                          Input orientation:
 ---------------------------------------------------------------------
 Center     Atomic      Atomic             Coordinates (Angstroms)
 Number     Number       Type             X           Y           Z
 ---------------------------------------------------------------------
      1          6           0       -0.349040    0.758950    0.250830
      2          6           0       -1.176839   -0.193163   -0.341970
      3          6           0       -0.311285   -1.240927   -0.789824
      4          1           0       -2.254097   -0.151654   -0.443695
      5          6           0        0.967331   -0.815122   -0.420278
      6          7           0        0.977424    0.374027    0.201560
      7          1           0       -0.630842    1.698875    0.709781
      8          8           0        2.182827   -1.469075   -0.620599
      9          1           0       -0.579563   -2.157235   -1.299316
     10          1           0        2.001074   -2.297156   -1.076540
 ---------------------------------------------------------------------

 SCF Done:  E(RB3LYP) =  -285.000781838     A.U. after    1 cycles

 Alpha  occ. eigenvalues --  -19.12541 -14.24709 -10.19466 -10.13674 -10.12012
 Alpha  occ. eigenvalues --  -10.11701  -1.02918  -0.89138  -0.70830  -0.65801
 Alpha  occ. eigenvalues --   -0.55427  -0.51462  -0.47526  -0.42026  -0.38622
 Alpha  occ. eigenvalues --   -0.38548  -0.35098  -0.32838  -0.30801  -0.24093
 Alpha  occ. eigenvalues --   -0.19618  -0.15737
 Alpha virt. eigenvalues --    0.01193   0.02601   0.04079   0.05647   0.05930
 Alpha virt. eigenvalues --    0.06366   0.07412   0.08142   0.08340   0.10043
 Alpha virt. eigenvalues --    0.10550   0.11414   0.12175   0.14606   0.15774

 Mulliken charges:
               1
     1  C   -0.184090
     2  C   -0.341117
     3  C   -0.055548
     4  H    0.095716
     5  C   -0.132351
     6  N   -0.444571
     7  H    0.088661
     8  O   -0.395932
     9  H    0.095899
    10  H    0.273332
 Sum of Mulliken charges =  -1.00000

 Dipole moment (field-independent basis, Debye):
    X=             -3.6175    Y=             -1.3394    Z=             -0.6112  Tot=              3.9057
 Quadrupole moment (field-independent basis, Debye-Ang):
   XX=            -50.1422   YY=            -36.4646   ZZ=            -41.6203
   XY=             -2.7715   XZ=             -1.8736   YZ=              3.3734

  Exact polarizability:      98.490      -0.055      94.874       3.425      13.776      76.101
 Approx polarizability:     108.588       1.284     103.940       5.138      18.005      79.768

                      1                      2                      3
                      A                      A                      A
 Frequencies --    180.1277               294.8287               425.5136
 Red. masses --      1.1030                 6.2938                 4.0422
 Frc consts  --      0.0211                 0.3223                 0.4312
 IR Inten    --    148.4546                 9.4663                11.0559
 Raman Activ --      2.2527                 5.1839                 4.3531

                      4                      5                      6
                      A                      A                      A
 Frequencies --    634.1456               652.0352               665.7144
 Red. masses --      2.5918                 1.4117                 1.5281
 Frc consts  --      0.6141                 0.3536                 0.3990
 IR Inten    --     45.5158                71.0478               142.7521
 Raman Activ --      7.2622                42.9348                57.4906

                      7                      8                      9
                      A                      A                      A
 Frequencies --    671.5030               698.0484               788.1036
 Red. masses --      8.6989                 3.7034                 1.2278
 Frc consts  --      2.3110                 1.0632                 0.4493
 IR Inten    --     29.7355                15.4945                 4.8651
 Raman Activ --     14.5784                14.4143                19.1206

                     10                     11                     12
                      A                      A                      A
 Frequencies --    900.3280               971.2394              1016.0801
 Red. masses --      5.5266                 2.9724                 1.3888
 Frc consts  --      2.6394                 1.6520                 0.8448
 IR Inten    --      0.4642                59.1988                56.6347
 Raman Activ --      4.9211                 2.6583                 2.1800

                     13                     14                     15
                      A                      A                      A
 Frequencies --   1091.3493              1135.0938              1205.9346
 Red. masses --      1.9555                 1.5039                 2.6907
 Frc consts  --      1.3722                 1.1416                 2.3055
 IR Inten    --      1.6930               108.5127                80.4631
 Raman Activ --     47.7204                 2.5443                44.0649

                     16                     17                     18
                      A                      A                      A
 Frequencies --   1246.5632              1340.2790              1437.5473
 Red. masses --      2.2517                 2.3514                 4.9530
 Frc consts  --      2.0615                 2.4886                 6.0306
 IR Inten    --     88.9355                 1.0610               199.6889
 Raman Activ --     73.0953                63.5581               149.1777

                     19                     20                     21
                      A                      A                      A
 Frequencies --   1478.6466              1494.2648              3166.0035
 Red. masses --      3.8873                 3.6255                 1.0862
 Frc consts  --      5.0075                 4.7695                 6.4148
 IR Inten    --    114.5424               158.8932                16.1705
 Raman Activ --     13.7350                60.5591               219.0445

                     22                     23                     24
                      A                      A                      A
 Frequencies --   3182.5778              3198.6631              3840.9628
 Red. masses --      1.0936                 1.1027                 1.0661
 Frc consts  --      6.5261                 6.6470                 9.2666
 IR Inten    --     74.7785                27.8763                79.7217
 Raman Activ --     89.4546               402.7466               176.2459

 - Thermochemistry -
 -------------------
 Temperature   298.150 Kelvin.  Pressure   1.00000 Atm.
 Thermochemistry will use frequencies scaled by 0.9670.

 Molecular mass:    82.02929 amu.
 Principal axes and moments of inertia in atomic units:
                           1         2         3
     Eigenvalues --   196.25009 491.93557 688.18551
           X            0.84528   0.52457  -0.10161
           Y           -0.50738   0.72838  -0.46046
           Z           -0.16754   0.44077   0.88184
 This molecule is an asymmetric top.
 Rotational symmetry number  1.
 Rotational temperatures (Kelvin)      0.44134     0.17607     0.12586
 Rotational constants (GHZ):           9.19613     3.66865     2.62246
 Zero-point vibrational energy     183441.0 (Joules/Mol)
                                   43.84345 (Kcal/Mol)
 Warning -- explicit consideration of   4 degrees of freedom as
           vibrations may cause significant error
 Vibrational temperatures:    250.61   410.19   592.02   882.29   907.17
          (Kelvin)            926.21   934.26   971.19  1096.49  1252.62
                             1351.28  1413.67  1518.39  1579.25  1677.81
                             1734.34  1864.73  2000.06  2057.24  2078.97
                             4404.85  4427.91  4450.29  5343.92

 Zero-point correction=                           0.069869 (Hartree/Particle)
 Thermal correction to Energy=                    0.075092
 Thermal correction to Enthalpy=                  0.076036
 Thermal correction to Gibbs Free Energy=         0.041599
 Sum of electronic and zero-point Energies=           -284.930913
 Sum of electronic and thermal Energies=              -284.925690
 Sum of electronic and thermal Enthalpies=            -284.924746
 Sum of electronic and thermal Free Energies=         -284.959182

                     E (Thermal)             CV                S
                      KCal/Mol        Cal/Mol-Kelvin    Cal/Mol-Kelvin
 Total                   47.121             19.282             72.478
 Electronic               0.000              0.000              0.000
 Translational            0.889              2.981             39.128
 Rotational               0.889              2.981             25.699
 Vibrational             45.344             13.320              7.651
 Vibration     1          0.627              1.874              2.390
 Vibration     2          0.683              1.701              1.503
 Vibration     3          0.775              1.445              0.921
 Vibration     4          0.973              1.004              0.427

 Normal termination of Gaussian 16 at Thu Dec 14 12:58:17 2023.
