 Gaussian 16, Revision C.01,
 Gaussian 16:  ES64L-G16RevC.01  3-Jul-2019

 ----------------------------------------------------------------------
 #p freq=raman scale=0.967 pop=(nbo,full,hirshfeld) guess=read geom=all
 check b3lyp/6-311+G(d,p) int=grid=ultrafine EmpiricalDispersion=GD3BJ
 SCRF=(Solvent=ethanol) scf=(xqc,intrep,maxconventionalcycle=350) nosym
 m
 ----------------------------------------------------------------------

 Structure from the checkpoint file:  "/scratch1/svicchi/G09-659847.pbs02/02-freq/tetrazolide-CO2_binding-site_index-3-freq.chk"
 ----------------------------------------
 tetrazolide-CO2_binding-site_index-3.gjf
 ----------------------------------------
 Charge = -1 Multiplicity = 1

                          Input orientation:
 ---------------------------------------------------------------------
 Center     Atomic      Atomic             Coordinates (Angstroms)
 Number     Number       Type             X           Y           Z
 ---------------------------------------------------------------------
      1          7           0        0.045736    1.041438    0.011558
      2          7           0        1.144404    0.368506    0.028818
      3          7           0       -1.084548    0.303565   -0.037093
      4          7           0        0.710546   -0.885575   -0.007528
      5          6           0       -0.676069   -0.982437   -0.050282
      6          1           0        0.056744    2.055436    0.035441
      7          6           0        1.764124   -2.042644    0.004287
      8          8           0        2.920415   -1.633125   -0.061291
      9          8           0        1.242114   -3.150035    0.078088
 ---------------------------------------------------------------------

 SCF Done:  E(RB3LYP) =  -446.476977744     A.U. after    1 cycles

 Alpha  occ. eigenvalues --  -19.08330 -19.08320 -14.44914 -14.41225 -14.39783
 Alpha  occ. eigenvalues --  -14.34940 -10.30244 -10.19090  -1.16761  -1.06184
 Alpha  occ. eigenvalues --   -0.97919  -0.95016  -0.89757  -0.71106  -0.65458
 Alpha  occ. eigenvalues --   -0.57137  -0.55001  -0.51506  -0.46612  -0.42929
 Alpha  occ. eigenvalues --   -0.42750  -0.38074  -0.33478  -0.32842  -0.30053
 Alpha  occ. eigenvalues --   -0.28370  -0.27467  -0.26134  -0.23128
 Alpha virt. eigenvalues --   -0.05387   0.01291   0.01467   0.03285   0.04536
 Alpha virt. eigenvalues --    0.05392   0.05913   0.07078   0.07594   0.07995
 Alpha virt. eigenvalues --    0.10114   0.11403   0.12214   0.12424   0.15142

 Mulliken charges:
               1
     1  N   -0.167543
     2  N    0.108278
     3  N   -0.183464
     4  N   -0.214014
     5  C   -0.341495
     6  H    0.365659
     7  C    0.378315
     8  O   -0.481577
     9  O   -0.464160
 Sum of Mulliken charges =  -1.00000

 Dipole moment (field-independent basis, Debye):
    X=             -4.6936    Y=             13.8170    Z=              0.1810  Tot=             14.5936
 Quadrupole moment (field-independent basis, Debye-Ang):
   XX=            -78.5807   YY=            -72.8454   ZZ=            -46.0918
   XY=             13.3607   XZ=             -0.0356   YZ=              0.3669

  Exact polarizability:     100.094       1.011     101.354       0.133      -0.218      50.563
 Approx polarizability:     120.953       6.514     118.760       0.033      -0.471      57.743

 Summary of Natural Population Analysis:

                                       Natural Population
                Natural  -----------------------------------------------
    Atom  No    Charge         Core      Valence    Rydberg      Total
 -----------------------------------------------------------------------
      N    1   -0.12106      1.99948     5.08892    0.03266     7.12106
      N    2   -0.02178      1.99950     4.99194    0.03033     7.02178
      N    3   -0.39414      1.99955     5.36212    0.03247     7.39414
      N    4   -0.32544      1.99934     5.28736    0.03874     7.32544
      C    5   -0.01415      1.99952     3.95786    0.05678     6.01415
      H    6    0.43675      0.00000     0.56125    0.00200     0.56325
      C    7    0.91890      1.99960     3.01745    0.06404     5.08110
      O    8   -0.74469      1.99975     6.73179    0.01315     8.74469
      O    9   -0.73440      1.99974     6.72106    0.01360     8.73440
 =======================================================================
   * Total *   -1.00000     15.99648    41.71975    0.28376    58.00000

                      1                      2                      3
                      A                      A                      A
 Frequencies --     55.7330               178.4060               240.3935
 Red. masses --     11.8497                 9.4997                11.2612
 Frc consts  --      0.0217                 0.1781                 0.3834
 IR Inten    --     14.4619                 0.0870                 8.1602
 Raman Activ --      0.5577                 1.9542                 0.2438

                      4                      5                      6
                      A                      A                      A
 Frequencies --    342.3683               520.3353               672.9833
 Red. masses --     12.9893                12.5553                12.9646
 Frc consts  --      0.8971                 2.0028                 3.4595
 IR Inten    --     68.6854                10.4133                 6.7190
 Raman Activ --     10.1950                 3.0654                 0.6912

                      7                      8                      9
                      A                      A                      A
 Frequencies --    681.9183               714.4399               736.9821
 Red. masses --      4.9395                13.9081                 1.3153
 Frc consts  --      1.3533                 4.1826                 0.4209
 IR Inten    --      7.9658               532.7439               119.1145
 Raman Activ --      0.1348                 5.7360                 0.2539

                     10                     11                     12
                      A                      A                      A
 Frequencies --    794.0851               957.7084              1025.6013
 Red. masses --     12.4791                 8.2772                 8.4552
 Frc consts  --      4.6363                 4.4730                 5.2400
 IR Inten    --     20.0421                29.8183                11.9329
 Raman Activ --      1.9353                28.2286                 7.3426

                     13                     14                     15
                      A                      A                      A
 Frequencies --   1038.2204              1152.9441              1198.4816
 Red. masses --      6.2350                13.4650                11.2096
 Frc consts  --      3.9597                10.5457                 9.4864
 IR Inten    --     72.6693                17.4082               319.4188
 Raman Activ --     12.9156                29.0071                34.2529

                     16                     17                     18
                      A                      A                      A
 Frequencies --   1273.9057              1296.1231              1330.7889
 Red. masses --      6.9630                 4.3006                 6.1302
 Frc consts  --      6.6576                 4.2567                 6.3965
 IR Inten    --    159.0698                70.5339               151.8707
 Raman Activ --      7.5702                 6.0393                45.2412

                     19                     20                     21
                      A                      A                      A
 Frequencies --   1496.8422              1796.9536              3590.1393
 Red. masses --      2.1290                12.8964                 1.0848
 Frc consts  --      2.8104                24.5354                 8.2377
 IR Inten    --      4.5042              1141.7166               181.0617
 Raman Activ --     20.3187                18.0590               349.2584

 - Thermochemistry -
 -------------------
 Temperature   298.150 Kelvin.  Pressure   1.00000 Atm.
 Thermochemistry will use frequencies scaled by 0.9670.

 Molecular mass:   113.00995 amu.
 Principal axes and moments of inertia in atomic units:
                           1         2         3
     Eigenvalues --   316.354181049.437251364.32641
           X           -0.63962   0.76868   0.00379
           Y            0.76867   0.63956   0.01036
           Z           -0.00554  -0.00954   0.99994
 This molecule is an asymmetric top.
 Rotational symmetry number  1.
 Rotational temperatures (Kelvin)      0.27379     0.08253     0.06348
 Rotational constants (GHZ):           5.70481     1.71972     1.32281
 Zero-point vibrational energy     122014.4 (Joules/Mol)
                                   29.16213 (Kcal/Mol)
 Warning -- explicit consideration of   5 degrees of freedom as
           vibrations may cause significant error
 Vibrational temperatures:     77.54   248.22   334.46   476.34   723.94
          (Kelvin)            936.32   948.75   994.00  1025.36  1104.81
                             1332.46  1426.92  1444.47  1604.09  1667.44
                             1772.38  1803.29  1851.52  2082.55  2500.10
                             4994.95

 Zero-point correction=                           0.046473 (Hartree/Particle)
 Thermal correction to Energy=                    0.052644
 Thermal correction to Enthalpy=                  0.053588
 Thermal correction to Gibbs Free Energy=         0.015273
 Sum of electronic and zero-point Energies=           -446.430505
 Sum of electronic and thermal Energies=              -446.424334
 Sum of electronic and thermal Enthalpies=            -446.423389
 Sum of electronic and thermal Free Energies=         -446.461705

                     E (Thermal)             CV                S
                      KCal/Mol        Cal/Mol-Kelvin    Cal/Mol-Kelvin
 Total                   33.035             21.013             80.642
 Electronic               0.000              0.000              0.000
 Translational            0.889              2.981             40.083
 Rotational               0.889              2.981             27.607
 Vibrational             31.257             15.052             12.953
 Vibration     1          0.596              1.976              4.669
 Vibration     2          0.626              1.876              2.408
 Vibration     3          0.653              1.791              1.860
 Vibration     4          0.713              1.613              1.255
 Vibration     5          0.858              1.243              0.650

 Optimization completed.
    -- Stationary point found.
 Normal termination of Gaussian 16 at Fri Jun  2 11:41:21 2023.
