 Gaussian 16, Revision C.01,
 Gaussian 16:  ES64L-G16RevC.01  3-Jul-2019

 ----------------------------------------------------------------------
 #p freq=raman scale=0.967 pop=(nbo,full,hirshfeld) guess=read geom=all
 check b3lyp/6-311+G(d,p) int=grid=ultrafine EmpiricalDispersion=GD3BJ
 SCRF=(Solvent=ethanol) scf=(xqc,intrep,maxconventionalcycle=350) nosym
 m
 ----------------------------------------------------------------------

 Structure from the checkpoint file:  "/scratch1/svicchi/G09-659790.pbs02/02-freq/benzim-isolated-freq.chk"
 -------------------
 benzim-isolated.gjf
 -------------------
 Charge = -1 Multiplicity = 1

                          Input orientation:
 ---------------------------------------------------------------------
 Center     Atomic      Atomic             Coordinates (Angstroms)
 Number     Number       Type             X           Y           Z
 ---------------------------------------------------------------------
      1          6           0       -6.520655   -0.009240   -0.000000
      2          6           0       -6.325011   -1.407632    0.000000
      3          6           0       -5.441175    0.870061    0.000000
      4          6           0       -4.145006    0.333391    0.000000
      5          6           0       -3.946541   -1.085126    0.000000
      6          6           0       -5.045643   -1.956947   -0.000000
      7          7           0       -2.910236    0.947635    0.000000
      8          6           0       -2.057445   -0.097646    0.000000
      9          7           0       -2.590555   -1.336972   -0.000000
     10          1           0       -5.598280    1.944350   -0.000000
     11          1           0       -7.532001    0.383456   -0.000000
     12          1           0       -7.189781   -2.062757    0.000000
     13          1           0       -4.902031   -3.033141   -0.000000
     14          1           0       -0.982910    0.052669   -0.000000
 ---------------------------------------------------------------------

 SCF Done:  E(RB3LYP) =  -379.522029480     A.U. after    1 cycles

 Alpha  occ. eigenvalues --  -14.26489 -14.26486 -10.18708 -10.16562 -10.16520
 Alpha  occ. eigenvalues --  -10.15532 -10.15530 -10.15422 -10.15376  -0.95638
 Alpha  occ. eigenvalues --   -0.81960  -0.81341  -0.71850  -0.70251  -0.59707
 Alpha  occ. eigenvalues --   -0.56854  -0.54649  -0.46195  -0.45888  -0.45103
 Alpha  occ. eigenvalues --   -0.41720  -0.39952  -0.37574  -0.34997  -0.34908
 Alpha  occ. eigenvalues --   -0.31985  -0.27393  -0.26480  -0.24407  -0.20382
 Alpha  occ. eigenvalues --   -0.19758
 Alpha virt. eigenvalues --   -0.00536   0.01444   0.02655   0.03228   0.03270
 Alpha virt. eigenvalues --    0.04697   0.05313   0.05628   0.05863   0.06437
 Alpha virt. eigenvalues --    0.07832   0.08574   0.09042   0.09262   0.10910

 Mulliken charges:
               1
     1  C   -0.267699
     2  C   -0.267473
     3  C   -0.666159
     4  C    0.458706
     5  C    0.458337
     6  C   -0.665477
     7  N   -0.385439
     8  C    0.123496
     9  N   -0.385552
    10  H    0.118528
    11  H    0.125539
    12  H    0.125525
    13  H    0.118572
    14  H    0.109097
 Sum of Mulliken charges =  -1.00000

 Dipole moment (field-independent basis, Debye):
    X=             15.8979    Y=              1.3135    Z=              0.0000  Tot=             15.9521
 Quadrupole moment (field-independent basis, Debye-Ang):
   XX=           -112.3971   YY=            -65.7503   ZZ=            -59.7214
   XY=             -3.5454   XZ=             -0.0000   YZ=             -0.0000

  Exact polarizability:     197.063       6.147     153.717      -0.000      -0.000      82.299
 Approx polarizability:     225.846       6.003     183.757      -0.000      -0.000      91.408

 Summary of Natural Population Analysis:

                                       Natural Population
                Natural  -----------------------------------------------
    Atom  No    Charge         Core      Valence    Rydberg      Total
 -----------------------------------------------------------------------
      C    1   -0.25988      1.99919     4.24138    0.01931     6.25988
      C    2   -0.25984      1.99919     4.24134    0.01931     6.25984
      C    3   -0.24357      1.99906     4.22589    0.01862     6.24357
      C    4    0.07110      1.99895     3.89677    0.03319     5.92890
      C    5    0.07106      1.99895     3.89681    0.03318     5.92894
      C    6   -0.24368      1.99906     4.22600    0.01862     6.24368
      N    7   -0.64570      1.99945     5.62156    0.02469     7.64570
      C    8    0.18199      1.99940     3.77780    0.04080     5.81801
      N    9   -0.64586      1.99945     5.62173    0.02469     7.64586
      H   10    0.20228      0.00000     0.79453    0.00319     0.79772
      H   11    0.20110      0.00000     0.79735    0.00156     0.79890
      H   12    0.20111      0.00000     0.79734    0.00156     0.79889
      H   13    0.20228      0.00000     0.79452    0.00319     0.79772
      H   14    0.16761      0.00000     0.83092    0.00147     0.83239
 =======================================================================
   * Total *   -1.00000     17.99270    43.76395    0.24335    62.00000

                      1                      2                      3
                      A                      A                      A
 Frequencies --    225.3068               257.8467               430.2238
 Red. masses --      4.2385                 5.7658                 5.2576
 Frc consts  --      0.1268                 0.2259                 0.5734
 IR Inten    --      3.5658                 0.0002                 8.7825
 Raman Activ --      0.0007                 0.0055                 1.8989

                      4                      5                      6
                      A                      A                      A
 Frequencies --    431.0034               556.0922               601.4772
 Red. masses --      2.7177                 7.4976                 3.9472
 Frc consts  --      0.2974                 1.3660                 0.8414
 IR Inten    --     15.0373                 6.6601                 0.0004
 Raman Activ --      0.8162                10.3129                 1.0348

                      7                      8                      9
                      A                      A                      A
 Frequencies --    630.5929               659.2954               743.5692
 Red. masses --      6.7285                 3.0436                 1.3519
 Frc consts  --      1.5764                 0.7795                 0.4404
 IR Inten    --      0.0449                 1.3915               161.9332
 Raman Activ --     18.8526                 0.0875                24.8371

                     10                     11                     12
                      A                      A                      A
 Frequencies --    774.7021               787.6648               847.2062
 Red. masses --      3.6273                 5.1050                 1.6674
 Frc consts  --      1.2826                 1.8661                 0.7051
 IR Inten    --      0.0003                11.3958                 0.0077
 Raman Activ --      4.3642               105.0837                 8.1559

                     13                     14                     15
                      A                      A                      A
 Frequencies --    891.6767               893.4389               929.2829
 Red. masses --      1.4614                 5.7753                 1.3778
 Frc consts  --      0.6846                 2.7161                 0.7010
 IR Inten    --     11.8753                 5.7406                 8.0607
 Raman Activ --      7.3482                 2.8615                 6.6563

                     16                     17                     18
                      A                      A                      A
 Frequencies --    951.8884               960.8582              1018.0624
 Red. masses --      9.4830                 1.2343                 2.1252
 Frc consts  --      5.0625                 0.6714                 1.2978
 IR Inten    --      0.0466                 0.0001                28.9313
 Raman Activ --      4.1041                 0.4218                92.6921

                     19                     20                     21
                      A                      A                      A
 Frequencies --   1120.4839              1156.0286              1196.2900
 Red. masses --      1.5777                 1.1420                 1.7325
 Frc consts  --      1.1671                 0.8992                 1.4608
 IR Inten    --      5.5656                11.1047                54.4972
 Raman Activ --      1.6959                11.5457                 0.0566

                     22                     23                     24
                      A                      A                      A
 Frequencies --   1233.7720              1243.9346              1282.7015
 Red. masses --      2.9296                 7.1657                 6.2755
 Frc consts  --      2.6274                 6.5329                 6.0834
 IR Inten    --    101.4944                28.6022               249.6508
 Raman Activ --     20.1079                13.3495               451.7642

                     25                     26                     27
                      A                      A                      A
 Frequencies --   1308.7868              1386.3601              1439.2696
 Red. masses --      1.7650                 3.8054                 2.5154
 Frc consts  --      1.7813                 4.3092                 3.0700
 IR Inten    --     15.1996                29.2569               100.3924
 Raman Activ --      0.3286                53.1196                62.8288

                     28                     29                     30
                      A                      A                      A
 Frequencies --   1464.8307              1494.3267              1589.5002
 Red. masses --      3.2702                 2.7182                 5.7809
 Frc consts  --      4.1343                 3.5763                 8.6054
 IR Inten    --     18.3628                 6.7052                 0.3553
 Raman Activ --     39.2184                19.5592                94.7420

                     31                     32                     33
                      A                      A                      A
 Frequencies --   1626.1823              3143.3824              3149.1698
 Red. masses --      6.6394                 1.0847                 1.0879
 Frc consts  --     10.3446                 6.3144                 6.3565
 IR Inten    --     31.9111                10.9970                 4.6969
 Raman Activ --     11.2481                42.7629               406.6415

                     34                     35                     36
                      A                      A                      A
 Frequencies --   3160.0067              3167.9735              3173.5914
 Red. masses --      1.0929                 1.0929                 1.0963
 Frc consts  --      6.4299                 6.4623                 6.5056
 IR Inten    --     87.0240                56.9623                48.4761
 Raman Activ --    129.1317               257.3448               695.4361

 - Thermochemistry -
 -------------------
 Temperature   298.150 Kelvin.  Pressure   1.00000 Atm.
 Thermochemistry will use frequencies scaled by 0.9670.

 Molecular mass:   117.04527 amu.
 Principal axes and moments of inertia in atomic units:
                           1         2         3
     Eigenvalues --   450.759681057.434181508.19385
           X            0.99035  -0.13855   0.00000
           Y            0.13855   0.99035  -0.00000
           Z            0.00000   0.00000   1.00000
 This molecule is an asymmetric top.
 Rotational symmetry number  1.
 Warning -- assumption of classical behavior for rotation
           may cause significant error
 Rotational temperatures (Kelvin)      0.19215     0.08191     0.05743
 Rotational constants (GHZ):           4.00378     1.70672     1.19662
 Zero-point vibrational energy     265637.9 (Joules/Mol)
                                   63.48899 (Kcal/Mol)
 Warning -- explicit consideration of   7 degrees of freedom as
           vibrations may cause significant error
 Vibrational temperatures:    313.47   358.74   598.57   599.65   773.69
          (Kelvin)            836.83   877.34   917.28  1034.53  1077.84
                             1095.88  1178.72  1240.59  1243.04  1292.91
                             1324.36  1336.84  1416.43  1558.93  1608.38
                             1664.40  1716.54  1730.68  1784.62  1820.91
                             1928.84  2002.45  2038.02  2079.05  2211.47
                             2262.50  4373.38  4381.43  4396.51  4407.59
                             4415.41

 Zero-point correction=                           0.101176 (Hartree/Particle)
 Thermal correction to Energy=                    0.107127
 Thermal correction to Enthalpy=                  0.108072
 Thermal correction to Gibbs Free Energy=         0.071082
 Sum of electronic and zero-point Energies=           -379.420853
 Sum of electronic and thermal Energies=              -379.414902
 Sum of electronic and thermal Enthalpies=            -379.413958
 Sum of electronic and thermal Free Energies=         -379.450947

                     E (Thermal)             CV                S
                      KCal/Mol        Cal/Mol-Kelvin    Cal/Mol-Kelvin
 Total                   67.223             24.519             77.851
 Electronic               0.000              0.000              0.000
 Translational            0.889              2.981             40.187
 Rotational               0.889              2.981             28.066
 Vibrational             65.446             18.557              9.598
 Vibration     1          0.646              1.814              1.977
 Vibration     2          0.662              1.764              1.735
 Vibration     3          0.779              1.435              0.906
 Vibration     4          0.780              1.434              0.903
 Vibration     5          0.893              1.167              0.570
 Vibration     6          0.938              1.071              0.482
 Vibration     7          0.969              1.011              0.433

 Optimization completed.
    -- Stationary point found.
 Normal termination of Gaussian 16 at Fri Jun  2 11:44:25 2023.
