 Gaussian 16, Revision C.01,
 Gaussian 16:  ES64L-G16RevC.01  3-Jul-2019

 ----------------------------------------------------------------------
 #p freq=raman scale=0.967 pop=(nbo,full,hirshfeld) guess=read geom=all
 check b3lyp/6-311+G(d,p) int=grid=ultrafine EmpiricalDispersion=GD3BJ
 SCRF=(Solvent=ethanol) scf=(xqc,intrep,maxconventionalcycle=350) nosym
 m
 ----------------------------------------------------------------------

 Structure from the checkpoint file:  "/scratch1/svicchi/G09-659740.pbs02/02-freq/3ethyl5hydroxymethylthiazolium-H_dissociation-site_index-1-freq.chk"
 --------------------------------------------------------------
 3ethyl5hydroxymethylthiazolium-H_dissociation-site_index-1.gjf
 --------------------------------------------------------------
 Charge =  0 Multiplicity = 1

                          Input orientation:
 ---------------------------------------------------------------------
 Center     Atomic      Atomic             Coordinates (Angstroms)
 Number     Number       Type             X           Y           Z
 ---------------------------------------------------------------------
      1          7           0       -0.065050    0.102237   -0.041010
      2          6           0        1.151528   -0.438085    0.120435
      3          6           0       -0.556933    0.285319   -1.341295
      4          6           0        0.307709   -0.122606   -2.290446
      5         16           0        1.744512   -0.742379   -1.483776
      6          6           0       -0.907870    0.453207    1.119293
      7          6           0       -1.998265   -0.583535    1.364747
      8          1           0       -2.591097   -0.295941    2.235976
      9          1           0       -2.671224   -0.665311    0.508105
     10          1           0       -1.557075   -1.564670    1.554171
     11          1           0       -1.336990    1.440315    0.934763
     12          1           0       -0.236905    0.526305    1.972825
     13          1           0       -1.531518    0.720408   -1.494244
     14          6           0        0.147014   -0.075773   -3.775067
     15          8           0       -1.130273    0.485457   -4.074764
     16          1           0        0.232612   -1.088429   -4.187424
     17          1           0        0.949570    0.528970   -4.214443
     18          1           0       -1.230739    0.509501   -5.032461
 ---------------------------------------------------------------------

 SCF Done:  E(RB3LYP) =  -762.329563608     A.U. after    1 cycles

 Alpha  occ. eigenvalues --  -88.87953 -19.14177 -14.38750 -10.24298 -10.21727
 Alpha  occ. eigenvalues --  -10.21625 -10.21614 -10.20853 -10.16944  -7.96610
 Alpha  occ. eigenvalues --   -5.92921  -5.92450  -5.92248  -1.04316  -1.00316
 Alpha  occ. eigenvalues --   -0.84432  -0.77412  -0.75440  -0.70752  -0.64759
 Alpha  occ. eigenvalues --   -0.59658  -0.55743  -0.52653  -0.50897  -0.47902
 Alpha  occ. eigenvalues --   -0.46754  -0.45055  -0.43988  -0.42005  -0.39162
 Alpha  occ. eigenvalues --   -0.37885  -0.36915  -0.36287  -0.34961  -0.30722
 Alpha  occ. eigenvalues --   -0.28358  -0.25515  -0.24408
 Alpha virt. eigenvalues --   -0.02912  -0.00300   0.00111   0.00628   0.01644
 Alpha virt. eigenvalues --    0.02293   0.03174   0.03850   0.04129   0.04951
 Alpha virt. eigenvalues --    0.05649   0.06698   0.07110   0.07767   0.08094

 Mulliken charges:
               1
     1  N    0.244233
     2  C   -0.561377
     3  C   -0.356870
     4  C    0.154989
     5  S    0.140716
     6  C   -0.127426
     7  C   -0.390621
     8  H    0.157924
     9  H    0.145418
    10  H    0.151854
    11  H    0.170490
    12  H    0.170772
    13  H    0.167491
    14  C   -0.323918
    15  O   -0.375723
    16  H    0.175143
    17  H    0.175709
    18  H    0.281196
 Sum of Mulliken charges =  -0.00000

 Dipole moment (field-independent basis, Debye):
    X=             -3.4118    Y=              1.2073    Z=             -3.6199  Tot=              5.1188
 Quadrupole moment (field-independent basis, Debye-Ang):
   XX=            -65.9249   YY=            -63.8434   ZZ=            -38.6266
   XY=              0.8753   XZ=             -5.7656   YZ=              2.5265

  Exact polarizability:     139.455     -16.544     102.255      -6.011       1.346     157.673
 Approx polarizability:     160.048     -22.701     117.695      -7.177       4.213     175.662

 Summary of Natural Population Analysis:

                                       Natural Population
                Natural  -----------------------------------------------
    Atom  No    Charge         Core      Valence    Rydberg      Total
 -----------------------------------------------------------------------
      N    1   -0.44529      1.99927     5.42224    0.02378     7.44529
      C    2   -0.24245      1.99942     4.20069    0.04234     6.24245
      C    3   -0.04661      1.99884     4.02578    0.02199     6.04661
      C    4   -0.22833      1.99897     4.20699    0.02237     6.22833
      S    5    0.36973      9.99892     5.58472    0.04663    15.63027
      C    6   -0.16415      1.99927     4.14718    0.01770     6.16415
      C    7   -0.58784      1.99936     4.58091    0.00757     6.58784
      H    8    0.21461      0.00000     0.78415    0.00124     0.78539
      H    9    0.20440      0.00000     0.79409    0.00150     0.79560
      H   10    0.20735      0.00000     0.79100    0.00165     0.79265
      H   11    0.20456      0.00000     0.79385    0.00159     0.79544
      H   12    0.21761      0.00000     0.78057    0.00183     0.78239
      H   13    0.24051      0.00000     0.75768    0.00182     0.75949
      C   14   -0.04958      1.99906     4.02882    0.02170     6.04958
      O   15   -0.75480      1.99979     6.74247    0.01253     8.75480
      H   16    0.18905      0.00000     0.80901    0.00194     0.81095
      H   17    0.18891      0.00000     0.80913    0.00196     0.81109
      H   18    0.48231      0.00000     0.51350    0.00418     0.51769
 =======================================================================
   * Total *   -0.00000     25.99289    49.77278    0.23433    76.00000

                      1                      2                      3
                      A                      A                      A
 Frequencies --     36.9887                69.2677               116.9776
 Red. masses --      3.2484                 2.6540                 3.4200
 Frc consts  --      0.0026                 0.0075                 0.0276
 IR Inten    --     55.2751                10.9732                 5.2181
 Raman Activ --      2.4327                 1.9869                 2.6656

                      4                      5                      6
                      A                      A                      A
 Frequencies --    159.6790               187.6053               225.3114
 Red. masses --      2.8695                 1.1288                 1.7288
 Frc consts  --      0.0431                 0.0234                 0.0517
 IR Inten    --     10.7078               127.9271                 7.9419
 Raman Activ --      0.2597                 0.3886                 4.1920

                      7                      8                      9
                      A                      A                      A
 Frequencies --    231.2835               361.4063               371.8148
 Red. masses --      1.8175                 3.4943                 7.6034
 Frc consts  --      0.0573                 0.2689                 0.6193
 IR Inten    --      4.4267                 7.4010                 5.3389
 Raman Activ --      3.1313                 2.6494                 8.8466

                     10                     11                     12
                      A                      A                      A
 Frequencies --    391.1873               477.6949               550.6887
 Red. masses --      3.2336                 4.9975                 5.2214
 Frc consts  --      0.2915                 0.6719                 0.9329
 IR Inten    --      7.6946                22.1715                 7.7624
 Raman Activ --      2.7124                 1.7712                24.4939

                     13                     14                     15
                      A                      A                      A
 Frequencies --    595.0111               631.7659               749.5689
 Red. masses --      5.0129                 3.8064                 4.8223
 Frc consts  --      1.0457                 0.8951                 1.5963
 IR Inten    --     33.9060                 6.5442                 8.5652
 Raman Activ --      5.7156                 2.4982                 7.9208

                     16                     17                     18
                      A                      A                      A
 Frequencies --    791.5816               811.7343               828.1923
 Red. masses --      3.0400                 1.5006                 1.3609
 Frc consts  --      1.1223                 0.5826                 0.5500
 IR Inten    --     11.0688                 8.1646                34.9168
 Raman Activ --     28.3828                 5.0143                 4.4893

                     19                     20                     21
                      A                      A                      A
 Frequencies --    938.3236              1010.8285              1027.3948
 Red. masses --      3.1240                 2.8753                 1.6446
 Frc consts  --      1.6205                 1.7310                 1.0228
 IR Inten    --      0.3722                 5.6625                 1.8303
 Raman Activ --     10.2039                 5.2622                 1.9162

                     22                     23                     24
                      A                      A                      A
 Frequencies --   1030.9928              1092.8188              1116.8529
 Red. masses --      7.6217                 2.0553                 1.8594
 Frc consts  --      4.7733                 1.4462                 1.3665
 IR Inten    --    109.6584                 6.8702                18.5622
 Raman Activ --     16.1480                 7.3002                 6.3881

                     25                     26                     27
                      A                      A                      A
 Frequencies --   1141.3035              1186.8001              1231.4856
 Red. masses --      3.5024                 1.4393                 1.4191
 Frc consts  --      2.6880                 1.1944                 1.2680
 IR Inten    --     28.2936                44.1523               109.1959
 Raman Activ --      2.3131                 9.1456                 3.3931

                     28                     29                     30
                      A                      A                      A
 Frequencies --   1264.2310              1269.8295              1339.8029
 Red. masses --      1.0632                 1.6264                 2.0764
 Frc consts  --      1.0012                 1.5452                 2.1960
 IR Inten    --      0.0204                11.0215                37.3097
 Raman Activ --     11.8016                 4.7234                15.5841

                     31                     32                     33
                      A                      A                      A
 Frequencies --   1384.0229              1408.7304              1413.5112
 Red. masses --      1.3260                 1.4143                 2.1636
 Frc consts  --      1.4965                 1.6536                 2.5470
 IR Inten    --     13.4406                15.0906                 9.5156
 Raman Activ --      2.4191                13.2751                27.6823

                     34                     35                     36
                      A                      A                      A
 Frequencies --   1455.7747              1481.8664              1483.2408
 Red. masses --      1.4723                 1.0675                 1.0400
 Frc consts  --      1.8384                 1.3811                 1.3481
 IR Inten    --     27.1160                 1.7898                14.7717
 Raman Activ --     22.3600                36.1795                17.1163

                     37                     38                     39
                      A                      A                      A
 Frequencies --   1500.2932              1502.6925              1639.7914
 Red. masses --      1.0864                 1.0812                 6.5771
 Frc consts  --      1.4407                 1.4384                10.4199
 IR Inten    --     13.7284                 2.8421                 1.8364
 Raman Activ --      8.5292                31.8408               125.0526

                     40                     41                     42
                      A                      A                      A
 Frequencies --   3002.1007              3027.6363              3035.2353
 Red. masses --      1.0552                 1.1064                 1.0346
 Frc consts  --      5.6033                 5.9753                 5.6156
 IR Inten    --     63.2280                35.4495                24.1223
 Raman Activ --    421.2992               211.9651               332.2683

                     43                     44                     45
                      A                      A                      A
 Frequencies --   3064.8657              3100.0873              3107.2996
 Red. masses --      1.0665                 1.1018                 1.1014
 Frc consts  --      5.9022                 6.2387                 6.2656
 IR Inten    --     34.5134                20.7040                45.5766
 Raman Activ --    259.3110               151.0324               187.1503

                     46                     47                     48
                      A                      A                      A
 Frequencies --   3136.1093              3249.1284              3831.0429
 Red. masses --      1.1018                 1.0963                 1.0669
 Frc consts  --      6.3846                 6.8188                 9.2258
 IR Inten    --     22.2594                 1.8471                83.7137
 Raman Activ --     73.0608               211.9386               301.8092

 - Thermochemistry -
 -------------------
 Temperature   298.150 Kelvin.  Pressure   1.00000 Atm.
 Thermochemistry will use frequencies scaled by 0.9670.

 Molecular mass:   143.04049 amu.
 Principal axes and moments of inertia in atomic units:
                           1         2         3
     Eigenvalues --   864.596931846.550072559.64133
           X           -0.20910   0.94318   0.25823
           Y           -0.03356  -0.27084   0.96204
           Z            0.97732   0.19250   0.08828
 This molecule is an asymmetric top.
 Rotational symmetry number  1.
 Warning -- assumption of classical behavior for rotation
           may cause significant error
 Rotational temperatures (Kelvin)      0.10018     0.04691     0.03384
 Rotational constants (GHZ):           2.08738     0.97736     0.70508
 Zero-point vibrational energy     364746.2 (Joules/Mol)
                                   87.17645 (Kcal/Mol)
 Warning -- explicit consideration of  14 degrees of freedom as
           vibrations may cause significant error
 Vibrational temperatures:     51.46    96.37   162.75   222.16   261.01
          (Kelvin)            313.48   321.78   502.82   517.30   544.26
                              664.62   766.17   827.84   878.97  1042.87
                             1101.33  1129.36  1152.26  1305.49  1406.36
                             1429.41  1434.42  1520.44  1553.87  1587.89
                             1651.19  1713.36  1758.92  1766.71  1864.06
                             1925.59  1959.96  1966.61  2025.42  2061.72
                             2063.63  2087.35  2090.69  2281.44  4176.81
                             4212.34  4222.91  4264.14  4313.14  4323.18
                             4363.26  4520.50  5330.12

 Zero-point correction=                           0.138925 (Hartree/Particle)
 Thermal correction to Energy=                    0.148987
 Thermal correction to Enthalpy=                  0.149931
 Thermal correction to Gibbs Free Energy=         0.102476
 Sum of electronic and zero-point Energies=           -762.190639
 Sum of electronic and thermal Energies=              -762.180577
 Sum of electronic and thermal Enthalpies=            -762.179633
 Sum of electronic and thermal Free Energies=         -762.227088

                     E (Thermal)             CV                S
                      KCal/Mol        Cal/Mol-Kelvin    Cal/Mol-Kelvin
 Total                   93.490             35.732             99.877
 Electronic               0.000              0.000              0.000
 Translational            0.889              2.981             40.785
 Rotational               0.889              2.981             29.792
 Vibrational             91.713             29.770             29.300
 Vibration     1          0.594              1.982              5.481
 Vibration     2          0.598              1.970              4.240
 Vibration     3          0.607              1.939              3.215
 Vibration     4          0.620              1.898              2.617
 Vibration     5          0.630              1.865              2.314
 Vibration     6          0.646              1.814              1.977
 Vibration     7          0.649              1.805              1.929
 Vibration     8          0.727              1.576              1.169
 Vibration     9          0.734              1.556              1.124
 Vibration    10          0.749              1.516              1.046
 Vibration    11          0.820              1.334              0.761
 Vibration    12          0.887              1.178              0.582
 Vibration    13          0.932              1.085              0.494
 Vibration    14          0.970              1.009              0.431

 Optimization completed.
    -- Stationary point found.
 Normal termination of Gaussian 16 at Fri Jun  2 12:07:10 2023.
