 Gaussian 16, Revision C.01,
 Gaussian 16:  ES64L-G16RevC.01  3-Jul-2019

 ----------------------------------------------------------------------
 #p freq=raman scale=0.967 pop=(nbo,full,hirshfeld) guess=read geom=all
 check b3lyp/6-311+G(d,p) int=grid=ultrafine EmpiricalDispersion=GD3BJ
 SCRF=(Solvent=ethanol) scf=(xqc,intrep,maxconventionalcycle=350) nosym
 m
 ----------------------------------------------------------------------

 Structure from the checkpoint file:  "/scratch1/svicchi/G09-672253.pbs02/02-freq/benzim-CO2_binding-site_index-6-freq.chk"
 -----------------------------------
 benzim-CO2_binding-site_index-6.gjf
 -----------------------------------
 Charge = -1 Multiplicity = 1

                          Input orientation:
 ---------------------------------------------------------------------
 Center     Atomic      Atomic             Coordinates (Angstroms)
 Number     Number       Type             X           Y           Z
 ---------------------------------------------------------------------
      1          6           0       -6.587800   -0.060371   -0.000000
      2          6           0       -6.322585   -1.442769   -0.000000
      3          6           0       -5.562695    0.881877   -0.000000
      4          6           0       -4.253864    0.396627    0.000000
      5          6           0       -3.975256   -0.992328    0.000000
      6          6           0       -5.017780   -1.923573    0.000000
      7          7           0       -3.006183    1.016479    0.000000
      8          6           0       -2.076564    0.003933    0.000000
      9          7           0       -2.596961   -1.200681    0.000000
     10          1           0       -5.756973    1.944031   -0.000000
     11          1           0       -7.616912    0.280232   -0.000000
     12          1           0       -7.151113   -2.141573   -0.000000
     13          1           0       -4.806613   -2.986660    0.000000
     14          1           0       -1.023517    0.235778    0.000000
     15          6           0       -2.681912    2.467863    0.000000
     16          8           0       -1.463973    2.712222   -0.000000
     17          8           0       -3.671448    3.215826    0.000000
 ---------------------------------------------------------------------

 SCF Done:  E(RB3LYP) =  -568.197846028     A.U. after    2 cycles

 Alpha  occ. eigenvalues --  -19.07064 -19.07039 -14.35891 -14.30251 -10.29276
 Alpha  occ. eigenvalues --  -10.23203 -10.20692 -10.19613 -10.17418 -10.17372
 Alpha  occ. eigenvalues --  -10.17225 -10.17133  -1.05700  -1.00319  -0.96082
 Alpha  occ. eigenvalues --   -0.87344  -0.84605  -0.74532  -0.73767  -0.63454
 Alpha  occ. eigenvalues --   -0.62452  -0.59812  -0.55418  -0.50105  -0.48622
 Alpha  occ. eigenvalues --   -0.46428  -0.45879  -0.44330  -0.43274  -0.42233
 Alpha  occ. eigenvalues --   -0.40686  -0.40174  -0.36906  -0.36390  -0.34405
 Alpha  occ. eigenvalues --   -0.30485  -0.28967  -0.27026  -0.26520  -0.24860
 Alpha  occ. eigenvalues --   -0.23470  -0.23228
 Alpha virt. eigenvalues --   -0.02916  -0.00113   0.01075   0.02214   0.02727
 Alpha virt. eigenvalues --    0.02982   0.04385   0.04519   0.04898   0.05376
 Alpha virt. eigenvalues --    0.07332   0.07365   0.07711   0.07930   0.08831

 Mulliken charges:
               1
     1  C   -0.427640
     2  C   -0.220894
     3  C   -0.319954
     4  C    0.695937
     5  C    0.210929
     6  C   -0.763436
     7  N   -0.191327
     8  C    0.223351
     9  N   -0.268393
    10  H    0.156705
    11  H    0.141935
    12  H    0.140268
    13  H    0.137010
    14  H    0.161877
    15  C    0.384267
    16  O   -0.529510
    17  O   -0.531126
 Sum of Mulliken charges =  -1.00000

 Dipole moment (field-independent basis, Debye):
    X=             12.4870    Y=             -9.6292    Z=             -0.0000  Tot=             15.7685
 Quadrupole moment (field-independent basis, Debye-Ang):
   XX=           -107.0602   YY=           -113.7783   ZZ=            -73.4425
   XY=             25.8432   XZ=              0.0000   YZ=             -0.0000

  Exact polarizability:     210.194      14.751     182.254      -0.000       0.000      85.821
 Approx polarizability:     246.710       8.491     210.945      -0.000       0.000      98.077

 Summary of Natural Population Analysis:

                                       Natural Population
                Natural  -----------------------------------------------
    Atom  No    Charge         Core      Valence    Rydberg      Total
 -----------------------------------------------------------------------
      C    1   -0.22224      1.99919     4.20483    0.01823     6.22224
      C    2   -0.23236      1.99918     4.21497    0.01821     6.23236
      C    3   -0.22982      1.99907     4.21342    0.01733     6.22982
      C    4    0.13323      1.99893     3.84783    0.02001     5.86677
      C    5    0.09655      1.99893     3.87903    0.02550     5.90345
      C    6   -0.21879      1.99906     4.20177    0.01796     6.21879
      N    7   -0.49288      1.99916     5.46658    0.02714     7.49288
      C    8    0.26960      1.99933     3.69979    0.03128     5.73040
      N    9   -0.55222      1.99942     5.53002    0.02278     7.55222
      H   10    0.23709      0.00000     0.76099    0.00192     0.76291
      H   11    0.21077      0.00000     0.78785    0.00138     0.78923
      H   12    0.21095      0.00000     0.78762    0.00143     0.78905
      H   13    0.21550      0.00000     0.78109    0.00341     0.78450
      H   14    0.21484      0.00000     0.78352    0.00164     0.78516
      C   15    0.92096      1.99959     3.02023    0.05921     5.07904
      O   16   -0.78413      1.99976     6.77261    0.01176     8.78413
      O   17   -0.77704      1.99976     6.76348    0.01381     8.77704
 =======================================================================
   * Total *   -1.00000     23.99137    59.71564    0.29299    84.00000

                      1                      2                      3
                      A                      A                      A
 Frequencies --     52.4046                96.9874               177.0821
 Red. masses --     12.4210                 5.9075                 8.1935
 Frc consts  --      0.0201                 0.0327                 0.1514
 IR Inten    --      0.2792                 7.8262                 8.0489
 Raman Activ --      0.1869                 5.6362                 0.7743

                      4                      5                      6
                      A                      A                      A
 Frequencies --    229.1669               273.1289               359.5319
 Red. masses --      4.3164                 6.7030                10.1591
 Frc consts  --      0.1336                 0.2946                 0.7737
 IR Inten    --      4.0532                 9.8786                 0.5009
 Raman Activ --      0.2655                 0.0841                 8.4679

                      7                      8                      9
                      A                      A                      A
 Frequencies --    403.5482               431.4238               524.1139
 Red. masses --      7.5102                 2.9026                 6.8696
 Frc consts  --      0.7206                 0.3183                 1.1118
 IR Inten    --     11.9218                13.2474                11.0942
 Raman Activ --      2.6148                 0.8282                 3.7290

                     10                     11                     12
                      A                      A                      A
 Frequencies --    586.1546               614.7698               631.7751
 Red. masses --      3.8401                 7.0031                 3.4807
 Frc consts  --      0.7774                 1.5594                 0.8185
 IR Inten    --      0.1197                16.3537                 1.6460
 Raman Activ --      0.9705                 2.7216                 0.4002

                     13                     14                     15
                      A                      A                      A
 Frequencies --    655.2833               753.3865               768.1514
 Red. masses --      7.4211                 1.4145                12.5626
 Frc consts  --      1.8775                 0.4730                 4.3674
 IR Inten    --      5.4314               106.5660               434.5834
 Raman Activ --     16.0015                 9.1729                 9.9908

                     16                     17                     18
                      A                      A                      A
 Frequencies --    775.9520               794.3034               807.8939
 Red. masses --      3.6502                11.1129                 5.3587
 Frc consts  --      1.2949                 4.1310                 2.0607
 IR Inten    --     29.4640                45.5507                 3.7953
 Raman Activ --      2.7206                 1.3962                92.2518

                     19                     20                     21
                      A                      A                      A
 Frequencies --    867.9204               899.3903               900.0943
 Red. masses --      1.4376                 5.6862                 1.4480
 Frc consts  --      0.6380                 2.7100                 0.6912
 IR Inten    --      0.5261                30.4089                 8.3988
 Raman Activ --      5.9535                 3.1172                 3.1645

                     22                     23                     24
                      A                      A                      A
 Frequencies --    954.9066               988.0744              1022.8961
 Red. masses --      1.3635                 1.2586                 1.9588
 Frc consts  --      0.7325                 0.7240                 1.2076
 IR Inten    --      5.8172                 0.3820                36.8849
 Raman Activ --      2.7767                 0.5373                64.7449

                     25                     26                     27
                      A                      A                      A
 Frequencies --   1062.5836              1126.9849              1156.4830
 Red. masses --      8.6884                 1.5178                 1.3113
 Frc consts  --      5.7799                 1.1358                 1.0333
 IR Inten    --     52.0327                37.8509               170.6850
 Raman Activ --     20.7333                13.6498                14.4190

                     28                     29                     30
                      A                      A                      A
 Frequencies --   1177.6535              1217.5442              1287.0926
 Red. masses --      1.5889                 3.1225                 3.0268
 Frc consts  --      1.2984                 2.7273                 2.9543
 IR Inten    --    247.4064               398.7764               411.7273
 Raman Activ --     10.4527                23.5173                43.7610

                     31                     32                     33
                      A                      A                      A
 Frequencies --   1294.9644              1326.7091              1340.5224
 Red. masses --      5.0376                 2.3218                 5.0885
 Frc consts  --      4.9772                 2.4078                 5.3875
 IR Inten    --    219.2131                20.0386                15.9844
 Raman Activ --    283.5078                22.4512               142.1112

                     34                     35                     36
                      A                      A                      A
 Frequencies --   1388.4094              1466.3654              1506.6039
 Red. masses --      4.5175                 2.7289                 2.8862
 Frc consts  --      5.1307                 3.4572                 3.8599
 IR Inten    --     22.1434                79.6552                19.4405
 Raman Activ --     36.4310                41.0139                29.0599

                     37                     38                     39
                      A                      A                      A
 Frequencies --   1509.5323              1614.3435              1646.3132
 Red. masses --      5.1362                 6.6257                 7.2350
 Frc consts  --      6.8957                10.1735                11.5534
 IR Inten    --     72.0108                 0.9631                20.4429
 Raman Activ --    124.5707                91.2947                21.2890

                     40                     41                     42
                      A                      A                      A
 Frequencies --   1709.6252              3165.3216              3176.9645
 Red. masses --     12.6699                 1.0863                 1.0906
 Frc consts  --     21.8184                 6.4124                 6.4852
 IR Inten    --   1108.6106                 2.8282                27.0572
 Raman Activ --     19.1448               137.5411               229.2362

                     43                     44                     45
                      A                      A                      A
 Frequencies --   3188.4253              3228.2440              3258.0084
 Red. masses --      1.0961                 1.0930                 1.0975
 Frc consts  --      6.5655                 6.7115                 6.8637
 IR Inten    --     32.6879                 4.7980                 1.9204
 Raman Activ --    499.9783               243.3466               158.3983

 - Thermochemistry -
 -------------------
 Temperature   298.150 Kelvin.  Pressure   1.00000 Atm.
 Thermochemistry will use frequencies scaled by 0.9670.

 Molecular mass:   161.03510 amu.
 Principal axes and moments of inertia in atomic units:
                           1         2         3
     Eigenvalues --   877.283932308.077063185.36099
           X            0.68275   0.73065   0.00000
           Y            0.73065  -0.68275  -0.00000
           Z           -0.00000  -0.00000   1.00000
 This molecule is an asymmetric top.
 Rotational symmetry number  1.
 Warning -- assumption of classical behavior for rotation
           may cause significant error
 Rotational temperatures (Kelvin)      0.09873     0.03753     0.02719
 Rotational constants (GHZ):           2.05719     0.78192     0.56657
 Zero-point vibrational energy     303177.2 (Joules/Mol)
                                   72.46109 (Kcal/Mol)
 Warning -- explicit consideration of  12 degrees of freedom as
           vibrations may cause significant error
 Vibrational temperatures:     72.91   134.94   246.37   318.84   380.00
          (Kelvin)            500.22   561.46   600.24   729.20   815.52
                              855.33   878.99   911.69  1048.18  1068.73
                             1079.58  1105.11  1124.02  1207.54  1251.32
                             1252.30  1328.56  1374.71  1423.15  1478.37
                             1567.97  1609.01  1638.47  1693.97  1790.73
                             1801.68  1845.85  1865.07  1931.69  2040.15
                             2096.13  2100.21  2246.03  2290.51  2378.60
                             4403.90  4420.10  4436.05  4491.45  4532.86

 Zero-point correction=                           0.115474 (Hartree/Particle)
 Thermal correction to Energy=                    0.124317
 Thermal correction to Enthalpy=                  0.125262
 Thermal correction to Gibbs Free Energy=         0.080664
 Sum of electronic and zero-point Energies=           -568.082372
 Sum of electronic and thermal Energies=              -568.073529
 Sum of electronic and thermal Enthalpies=            -568.072584
 Sum of electronic and thermal Free Energies=         -568.117182

                     E (Thermal)             CV                S
                      KCal/Mol        Cal/Mol-Kelvin    Cal/Mol-Kelvin
 Total                   78.010             34.367             93.864
 Electronic               0.000              0.000              0.000
 Translational            0.889              2.981             41.138
 Rotational               0.889              2.981             30.246
 Vibrational             76.233             28.406             22.480
 Vibration     1          0.595              1.977              4.791
 Vibration     2          0.603              1.954              3.579
 Vibration     3          0.626              1.878              2.422
 Vibration     4          0.648              1.808              1.946
 Vibration     5          0.671              1.739              1.634
 Vibration     6          0.725              1.580              1.177
 Vibration     7          0.758              1.491              0.999
 Vibration     8          0.780              1.433              0.902
 Vibration     9          0.862              1.235              0.641
 Vibration    10          0.923              1.103              0.510
 Vibration    11          0.952              1.044              0.459
 Vibration    12          0.970              1.009              0.431

 Optimization completed.
    -- Stationary point found.
 Normal termination of Gaussian 16 at Mon Jun  5 12:06:19 2023.
