 Gaussian 16, Revision C.01,
 Gaussian 16:  ES64L-G16RevC.01  3-Jul-2019

 ----------------------------------------------------------------------
 #p freq=raman scale=0.967 pop=(nbo,full,hirshfeld) guess=read geom=all
 check b3lyp/6-311+G(d,p) int=grid=ultrafine EmpiricalDispersion=GD3BJ
 SCRF=(Solvent=ethanol) scf=(xqc,intrep,maxconventionalcycle=350) nosym
 m
 ----------------------------------------------------------------------

 Structure from the checkpoint file:  "/scratch1/svicchi/G09-659890.pbs02/02-freq/EDA-CO2_binding-site_index-5-freq.chk"
 --------------------------------
 EDA-CO2_binding-site_index-5.gjf
 --------------------------------
 Charge = -1 Multiplicity = 1

                          Input orientation:
 ---------------------------------------------------------------------
 Center     Atomic      Atomic             Coordinates (Angstroms)
 Number     Number       Type             X           Y           Z
 ---------------------------------------------------------------------
      1          7           0        2.041547   -0.940353    0.240037
      2          6           0        3.051291    0.108640    0.438533
      3          6           0        4.424303   -0.185259   -0.188656
      4          1           0        3.173900    0.266338    1.515353
      5          1           0        2.665911    1.042467    0.020495
      6          7           0        5.401923    0.872497    0.003120
      7          1           0        4.302285   -0.342632   -1.262194
      8          1           0        4.823006   -1.113040    0.238015
      9          1           0        5.720535    1.008138    0.952180
     10          1           0        2.375656   -1.824042    0.615492
     11          1           0        1.889053   -1.093002   -0.753297
     12          6           0        5.358971    2.074879   -0.743077
     13          8           0        4.714698    2.062268   -1.827000
     14          8           0        6.012609    3.043456   -0.256489
 ---------------------------------------------------------------------

 SCF Done:  E(RB3LYP) =  -378.796832663     A.U. after    1 cycles

 Alpha  occ. eigenvalues --  -19.04307 -19.04159 -14.29380 -14.29348 -10.25889
 Alpha  occ. eigenvalues --  -10.18248 -10.18208  -1.01787  -0.92037  -0.88874
 Alpha  occ. eigenvalues --   -0.86542  -0.70206  -0.61115  -0.53918  -0.49529
 Alpha  occ. eigenvalues --   -0.46246  -0.44108  -0.43318  -0.39895  -0.39090
 Alpha  occ. eigenvalues --   -0.37906  -0.36666  -0.33548  -0.26702  -0.24807
 Alpha  occ. eigenvalues --   -0.23880  -0.21908  -0.21620
 Alpha virt. eigenvalues --    0.00951   0.01976   0.03315   0.03662   0.06012
 Alpha virt. eigenvalues --    0.06965   0.07237   0.07650   0.08311   0.09825
 Alpha virt. eigenvalues --    0.10760   0.10849   0.12330   0.13063   0.15233

 Mulliken charges:
               1
     1  N   -0.515316
     2  C   -0.178430
     3  C   -0.294617
     4  H    0.135535
     5  H    0.145760
     6  N   -0.356439
     7  H    0.156330
     8  H    0.133691
     9  H    0.249141
    10  H    0.236110
    11  H    0.237914
    12  C    0.299955
    13  O   -0.618395
    14  O   -0.631240
 Sum of Mulliken charges =  -1.00000

 Dipole moment (field-independent basis, Debye):
    X=            -24.9229    Y=            -14.3015    Z=              5.7075  Tot=             29.2961
 Quadrupole moment (field-independent basis, Debye-Ang):
   XX=           -189.1977   YY=            -83.4567   ZZ=            -54.6892
   XY=            -79.2190   XZ=             31.6730   YZ=             14.0896

  Exact polarizability:      83.185      11.750      93.246       5.612      -2.365      83.249
 Approx polarizability:      83.517       8.789      94.486       9.892      -0.368      90.976

 Summary of Natural Population Analysis:

                                       Natural Population
                Natural  -----------------------------------------------
    Atom  No    Charge         Core      Valence    Rydberg      Total
 -----------------------------------------------------------------------
      N    1   -0.87166      1.99957     5.84876    0.02334     7.87166
      C    2   -0.20032      1.99931     4.18047    0.02054     6.20032
      C    3   -0.20319      1.99928     4.18029    0.02362     6.20319
      H    4    0.17748      0.00000     0.82010    0.00242     0.82252
      H    5    0.18697      0.00000     0.81054    0.00249     0.81303
      N    6   -0.72142      1.99938     5.69872    0.02332     7.72142
      H    7    0.19977      0.00000     0.79740    0.00283     0.80023
      H    8    0.18108      0.00000     0.81670    0.00222     0.81892
      H    9    0.37833      0.00000     0.61922    0.00246     0.62167
      H   10    0.35425      0.00000     0.64294    0.00282     0.64575
      H   11    0.35563      0.00000     0.64161    0.00275     0.64437
      C   12    0.88281      1.99960     3.05447    0.06313     5.11719
      O   13   -0.85385      1.99977     6.84038    0.01370     8.85385
      O   14   -0.86586      1.99978     6.85206    0.01402     8.86586
 =======================================================================
   * Total *   -1.00000     13.99669    41.80365    0.19966    56.00000

                      1                      2                      3
                      A                      A                      A
 Frequencies --     84.7161                89.4217               109.3286
 Red. masses --      5.0548                 7.9318                 1.8556
 Frc consts  --      0.0214                 0.0374                 0.0131
 IR Inten    --     10.1550                 3.2317                 1.8878
 Raman Activ --      1.4801                 2.8469                 0.3900

                      4                      5                      6
                      A                      A                      A
 Frequencies --    267.0047               287.3470               297.3429
 Red. masses --      1.4584                 1.7715                 3.2737
 Frc consts  --      0.0613                 0.0862                 0.1705
 IR Inten    --     84.8531                 7.7823                24.9809
 Raman Activ --      0.2719                 0.6275                 0.7737

                      7                      8                      9
                      A                      A                      A
 Frequencies --    412.9128               521.0255               605.9494
 Red. masses --      5.4145                 1.4629                 4.6956
 Frc consts  --      0.5439                 0.2340                 1.0158
 IR Inten    --      1.1717               174.0411                15.7591
 Raman Activ --      6.2797                 1.5885                 1.8072

                     10                     11                     12
                      A                      A                      A
 Frequencies --    684.6444               773.6470               817.5262
 Red. masses --      2.1220                 1.4316                11.3085
 Frc consts  --      0.5860                 0.5049                 4.4531
 IR Inten    --     39.1001                30.3045                35.9730
 Raman Activ --      0.9195                 1.8932                 0.5711

                     13                     14                     15
                      A                      A                      A
 Frequencies --    870.3341               925.5588              1012.9750
 Red. masses --      1.5707                 2.8737                 1.4179
 Frc consts  --      0.7010                 1.4504                 0.8572
 IR Inten    --    266.3939                40.5996                 8.1513
 Raman Activ --      4.8627                15.3721                 5.8486

                     16                     17                     18
                      A                      A                      A
 Frequencies --   1041.4984              1080.7188              1141.1527
 Red. masses --      4.0509                 3.2175                 2.6846
 Frc consts  --      2.5889                 2.2141                 2.0598
 IR Inten    --     45.1865                12.5684                84.3785
 Raman Activ --     13.8088                15.1304                 4.1275

                     19                     20                     21
                      A                      A                      A
 Frequencies --   1193.1582              1304.2810              1326.0300
 Red. masses --      1.6123                 2.8910                 1.3089
 Frc consts  --      1.3524                 2.8976                 1.3560
 IR Inten    --     21.8245               485.2993               108.2609
 Raman Activ --      2.5719                14.8849                10.8200

                     22                     23                     24
                      A                      A                      A
 Frequencies --   1345.4964              1380.0092              1402.1206
 Red. masses --      1.4299                 1.1641                 1.3875
 Frc consts  --      1.5252                 1.3061                 1.6071
 IR Inten    --     98.7417                 4.8086                23.6815
 Raman Activ --      2.7780                17.7430                10.8313

                     25                     26                     27
                      A                      A                      A
 Frequencies --   1442.7619              1471.3636              1491.1639
 Red. masses --      1.3145                 1.3041                 1.0946
 Frc consts  --      1.6121                 1.6634                 1.4340
 IR Inten    --    130.4854               142.8554                 8.3943
 Raman Activ --     24.0944                10.6805                 5.5503

                     28                     29                     30
                      A                      A                      A
 Frequencies --   1594.8077              1649.2767              3013.0208
 Red. masses --      5.2114                 1.0874                 1.0673
 Frc consts  --      7.8094                 1.7427                 5.7087
 IR Inten    --   1070.7359                47.7417                83.1266
 Raman Activ --      5.2379                 5.4628               355.0859

                     31                     32                     33
                      A                      A                      A
 Frequencies --   3025.0116              3068.2531              3089.1901
 Red. masses --      1.0633                 1.0946                 1.1019
 Frc consts  --      5.7326                 6.0716                 6.1953
 IR Inten    --     62.9292                30.6754                62.7920
 Raman Activ --    241.6442               184.0881                39.5641

                     34                     35                     36
                      A                      A                      A
 Frequencies --   3481.8502              3553.8701              3597.8447
 Red. masses --      1.0494                 1.0929                 1.0758
 Frc consts  --      7.4954                 8.1327                 8.2050
 IR Inten    --      0.4758                 2.1700                 9.1944
 Raman Activ --    225.0691                96.2044               192.2155

 - Thermochemistry -
 -------------------
 Temperature   298.150 Kelvin.  Pressure   1.00000 Atm.
 Thermochemistry will use frequencies scaled by 0.9670.

 Molecular mass:   103.05075 amu.
 Principal axes and moments of inertia in atomic units:
                           1         2         3
     Eigenvalues --   273.752801392.310951485.11091
           X            0.67049   0.52335  -0.52588
           Y            0.70894  -0.24295   0.66210
           Z           -0.21875   0.81675   0.53392
 This molecule is an asymmetric top.
 Rotational symmetry number  1.
 Rotational temperatures (Kelvin)      0.31639     0.06221     0.05832
 Rotational constants (GHZ):           6.59259     1.29622     1.21522
 Zero-point vibrational energy     286031.2 (Joules/Mol)
                                   68.36309 (Kcal/Mol)
 Warning -- explicit consideration of   9 degrees of freedom as
           vibrations may cause significant error
 Vibrational temperatures:    117.87   124.41   152.11   371.48   399.79
          (Kelvin)            413.69   574.48   724.90   843.06   952.54
                             1076.37  1137.42  1210.89  1287.73  1409.35
                             1449.03  1503.60  1587.68  1660.04  1814.64
                             1844.90  1871.99  1920.00  1950.77  2007.31
                             2047.10  2074.65  2218.85  2294.63  4192.01
                             4208.69  4268.85  4297.98  4844.29  4944.49
                             5005.67

 Zero-point correction=                           0.108944 (Hartree/Particle)
 Thermal correction to Energy=                    0.116751
 Thermal correction to Enthalpy=                  0.117695
 Thermal correction to Gibbs Free Energy=         0.076317
 Sum of electronic and zero-point Energies=           -378.687889
 Sum of electronic and thermal Energies=              -378.680082
 Sum of electronic and thermal Enthalpies=            -378.679138
 Sum of electronic and thermal Free Energies=         -378.720516

                     E (Thermal)             CV                S
                      KCal/Mol        Cal/Mol-Kelvin    Cal/Mol-Kelvin
 Total                   73.262             26.921             87.087
 Electronic               0.000              0.000              0.000
 Translational            0.889              2.981             39.808
 Rotational               0.889              2.981             27.828
 Vibrational             71.485             20.960             19.451
 Vibration     1          0.600              1.962              3.844
 Vibration     2          0.601              1.959              3.738
 Vibration     3          0.605              1.945              3.346
 Vibration     4          0.667              1.749              1.674
 Vibration     5          0.679              1.714              1.547
 Vibration     6          0.685              1.697              1.488
 Vibration     7          0.765              1.472              0.965
 Vibration     8          0.859              1.242              0.649
 Vibration     9          0.943              1.062              0.474

 Optimization completed.
    -- Stationary point found.
 Normal termination of Gaussian 16 at Fri Jun  2 13:50:52 2023.
