 Gaussian 16, Revision C.02,
 Gaussian 16:  ES64L-G16RevC.02  7-Dec-2021

 ----------------------------------------------------------------------
 #p freq=raman scale=0.967 guess=read geom=allcheck b3lyp/6-311+G(d,p)
 int=grid=ultrafine EmpiricalDispersion=GD3BJ SCRF=(Solvent=ethanol) sc
 f=(xqc,intrep,maxconventionalcycle=350) nosymm
 ----------------------------------------------------------------------

 Structure from the checkpoint file:  "/scratch1/svicchi/G09-1734023.pbs02/02-freq/PyrCHOCH3-isolated-freq.chk"
 ------------------
 PyrCHOCH3-isolated
 ------------------
 Charge = -1 Multiplicity = 1

                          Input orientation:
 ---------------------------------------------------------------------
 Center     Atomic      Atomic             Coordinates (Angstroms)
 Number     Number       Type             X           Y           Z
 ---------------------------------------------------------------------
      1          6           0       -0.453160    0.691495    0.142421
      2          6           0       -1.291323   -0.345889   -0.345476
      3          6           0       -0.437264   -1.400899   -0.668311
      4          1           0       -2.368591   -0.316092   -0.444344
      5          6           0        0.876184   -0.955474   -0.361211
      6          7           0        0.840875    0.338626    0.137841
      7          1           0       -0.762819    1.671326    0.489856
      8          6           0        2.098490   -1.694634   -0.519437
      9          1           0       -0.705627   -2.367754   -1.069704
     10          8           0        2.135001   -2.855378   -0.976273
     11          6           0        3.404654   -1.039623   -0.102628
     12          1           0        3.270615    0.000113    0.187580
     13          1           0        4.118397   -1.110499   -0.927872
     14          1           0        3.825366   -1.598038    0.739707
 ---------------------------------------------------------------------

 SCF Done:  E(RB3LYP) =  -362.474725307     A.U. after    1 cycles

 Alpha  occ. eigenvalues --  -19.07517 -14.26555 -10.22934 -10.15678 -10.15092
 Alpha  occ. eigenvalues --  -10.14797 -10.13738 -10.13521  -1.00066  -0.90998
 Alpha  occ. eigenvalues --   -0.73467  -0.72067  -0.68027  -0.57505  -0.52859
 Alpha  occ. eigenvalues --   -0.48651  -0.46641  -0.42214  -0.41238  -0.40414
 Alpha  occ. eigenvalues --   -0.37176  -0.36555  -0.35925  -0.34853  -0.32657
 Alpha  occ. eigenvalues --   -0.24775  -0.23129  -0.21452  -0.19152
 Alpha virt. eigenvalues --   -0.02086   0.01222   0.02820   0.03679   0.04903
 Alpha virt. eigenvalues --    0.05050   0.05609   0.06427   0.06850   0.07727
 Alpha virt. eigenvalues --    0.08568   0.08908   0.08980   0.10111   0.11049

 Mulliken charges:
               1
     1  C   -0.132231
     2  C   -0.271830
     3  C   -0.220573
     4  H    0.108570
     5  C    0.311778
     6  N   -0.307689
     7  H    0.100508
     8  C   -0.067823
     9  H    0.110909
    10  O   -0.515981
    11  C   -0.583391
    12  H    0.161242
    13  H    0.149830
    14  H    0.156680
 Sum of Mulliken charges =  -1.00000

 Dipole moment (field-independent basis, Debye):
    X=             -4.8796    Y=              5.8515    Z=              2.2114  Tot=              7.9335
 Quadrupole moment (field-independent basis, Debye-Ang):
   XX=            -59.1420   YY=            -72.4201   ZZ=            -55.5958
   XY=             10.8618   XZ=              4.1319   YZ=             -6.9681

  Exact polarizability:     165.993     -30.882     138.661      -2.628      20.186      86.699
 Approx polarizability:     179.546     -36.374     161.970      -4.281      25.859      96.254

                      1                      2                      3
                      A                      A                      A
 Frequencies --     49.0351               113.3827               184.0844
 Red. masses --      1.1996                 2.6652                 4.8410
 Frc consts  --      0.0017                 0.0202                 0.0967
 IR Inten    --      5.4641                11.9564                 2.7698
 Raman Activ --      0.9120                 1.7776                 4.1011

                      4                      5                      6
                      A                      A                      A
 Frequencies --    220.3186               388.0153               521.1423
 Red. masses --      4.0948                 3.7711                 6.7810
 Frc consts  --      0.1171                 0.3345                 1.0851
 IR Inten    --     22.8859                 2.5867                15.4322
 Raman Activ --      0.1774                 5.7722                13.3958

                      7                      8                      9
                      A                      A                      A
 Frequencies --    576.9067               621.5153               646.8754
 Red. masses --      3.1111                 3.5667                 2.9655
 Frc consts  --      0.6101                 0.8117                 0.7311
 IR Inten    --      1.7348                37.4563                27.0624
 Raman Activ --      1.7505                22.7686                 1.6370

                     10                     11                     12
                      A                      A                      A
 Frequencies --    692.0057               750.6460               817.8786
 Red. masses --      2.7320                 1.5167                 1.3114
 Frc consts  --      0.7708                 0.5035                 0.5169
 IR Inten    --     25.4307               107.3166                 3.6794
 Raman Activ --      6.0567                32.6337                31.2019

                     13                     14                     15
                      A                      A                      A
 Frequencies --    873.9156               905.2981               919.4430
 Red. masses --      1.3617                 5.6393                 4.4278
 Frc consts  --      0.6127                 2.7230                 2.2054
 IR Inten    --      6.5100                19.5448               123.9531
 Raman Activ --      0.1593                16.2461                51.3389

                     16                     17                     18
                      A                      A                      A
 Frequencies --    980.0953              1032.6810              1039.0734
 Red. masses --      1.7996                 1.2730                 1.7663
 Frc consts  --      1.0185                 0.7999                 1.1236
 IR Inten    --     13.4870                95.9343                 7.1163
 Raman Activ --      6.7947                22.9761                 6.5668

                     19                     20                     21
                      A                      A                      A
 Frequencies --   1055.5371              1134.7164              1204.8507
 Red. masses --      1.7284                 3.2036                 1.8939
 Frc consts  --      1.1346                 2.4303                 1.6199
 IR Inten    --      1.4706                81.5476               188.8966
 Raman Activ --     27.3389               179.5292                32.8380

                     22                     23                     24
                      A                      A                      A
 Frequencies --   1300.8551              1338.3050              1361.9644
 Red. masses --      8.4571                 3.5612                 1.3089
 Frc consts  --      8.4319                 3.7580                 1.4305
 IR Inten    --     86.9126                83.8980                37.7532
 Raman Activ --     50.4910               159.4557                83.4096

                     25                     26                     27
                      A                      A                      A
 Frequencies --   1386.5912              1446.3364              1472.8087
 Red. masses --      2.6450                 1.3558                 2.3883
 Frc consts  --      2.9962                 1.6710                 3.0524
 IR Inten    --    376.6014                63.3756                20.3298
 Raman Activ --    300.5483                29.8402                32.2247

                     28                     29                     30
                      A                      A                      A
 Frequencies --   1475.4746              1505.7211              1590.7128
 Red. masses --      1.0545                 4.6330                 9.1326
 Frc consts  --      1.3526                 6.1888                13.6154
 IR Inten    --     13.5775               244.7501              1110.9660
 Raman Activ --     12.4196                10.0545               476.4443

                     31                     32                     33
                      A                      A                      A
 Frequencies --   3029.0312              3083.1246              3147.4377
 Red. masses --      1.0393                 1.0985                 1.0989
 Frc consts  --      5.6184                 6.1519                 6.4137
 IR Inten    --     40.0094                27.6955                14.4714
 Raman Activ --    637.0105               219.9192                85.2406

                     34                     35                     36
                      A                      A                      A
 Frequencies --   3158.5803              3193.5953              3218.9774
 Red. masses --      1.0903                 1.0928                 1.1000
 Frc consts  --      6.4089                 6.5670                 6.7153
 IR Inten    --     44.0687                41.7765                25.9093
 Raman Activ --    258.6928               288.5049               284.0713

 - Thermochemistry -
 -------------------
 Temperature   298.150 Kelvin.  Pressure   1.00000 Atm.
 Thermochemistry will use frequencies scaled by 0.9670.

 Molecular mass:   108.04494 amu.
 Principal axes and moments of inertia in atomic units:
                           1         2         3
     Eigenvalues --   369.749431115.403811473.93873
           X            0.86868   0.48499  -0.10089
           Y           -0.48587   0.79444  -0.36440
           Z           -0.09658   0.36557   0.92576
 This molecule is an asymmetric top.
 Rotational symmetry number  1.
 Rotational temperatures (Kelvin)      0.23425     0.07765     0.05876
 Rotational constants (GHZ):           4.88098     1.61802     1.22443
 Zero-point vibrational energy     268588.6 (Joules/Mol)
                                   64.19422 (Kcal/Mol)
 Warning -- explicit consideration of   8 degrees of freedom as
           vibrations may cause significant error
 Vibrational temperatures:     68.22   157.75   256.12   306.53   539.84
          (Kelvin)            725.06   802.65   864.71   900.00   962.79
                             1044.37  1137.91  1215.88  1259.54  1279.22
                             1363.60  1436.77  1445.66  1468.57  1578.73
                             1676.31  1809.88  1861.98  1894.90  1929.16
                             2012.28  2049.11  2052.82  2094.91  2213.15
                             4214.28  4289.54  4379.02  4394.52  4443.24
                             4478.55

 Zero-point correction=                           0.102300 (Hartree/Particle)
 Thermal correction to Energy=                    0.109635
 Thermal correction to Enthalpy=                  0.110580
 Thermal correction to Gibbs Free Energy=         0.069959
 Sum of electronic and zero-point Energies=           -362.372425
 Sum of electronic and thermal Energies=              -362.365090
 Sum of electronic and thermal Enthalpies=            -362.364146
 Sum of electronic and thermal Free Energies=         -362.404767

                     E (Thermal)             CV                S
                      KCal/Mol        Cal/Mol-Kelvin    Cal/Mol-Kelvin
 Total                   68.797             26.530             85.494
 Electronic               0.000              0.000              0.000
 Translational            0.889              2.981             39.949
 Rotational               0.889              2.981             27.899
 Vibrational             67.020             20.569             17.646
 Vibration     1          0.595              1.979              4.922
 Vibration     2          0.606              1.941              3.275
 Vibration     3          0.628              1.869              2.349
 Vibration     4          0.644              1.821              2.017
 Vibration     5          0.746              1.523              1.058
 Vibration     6          0.859              1.241              0.648
 Vibration     7          0.913              1.122              0.528
 Vibration     8          0.959              1.030              0.448

 Normal termination of Gaussian 16 at Thu Dec 14 12:30:11 2023.
