 Gaussian 16, Revision C.01,
 Gaussian 16:  ES64L-G16RevC.01  3-Jul-2019

 ----------------------------------------------------------------------
 #p freq=raman scale=0.967 pop=(nbo,full,hirshfeld) guess=read geom=all
 check b3lyp/6-311+G(d,p) int=grid=ultrafine EmpiricalDispersion=GD3BJ
 SCRF=(Solvent=ethanol) scf=(xqc,intrep,maxconventionalcycle=350) nosym
 m
 ----------------------------------------------------------------------

 Structure from the checkpoint file:  "/scratch1/svicchi/G09-659745.pbs02/02-freq/3ethyl5hydroxymethylthiazolium-CO2_binding-site_index-1-freq.chk"
 -----------------------------------------------------------
 3ethyl5hydroxymethylthiazolium-CO2_binding-site_index-1.gjf
 -----------------------------------------------------------
 Charge =  0 Multiplicity = 1

                          Input orientation:
 ---------------------------------------------------------------------
 Center     Atomic      Atomic             Coordinates (Angstroms)
 Number     Number       Type             X           Y           Z
 ---------------------------------------------------------------------
      1          7           0       -0.163719    0.050874   -0.032307
      2          6           0        0.985737   -0.609031    0.075426
      3          6           0       -0.559124    0.300102   -1.337543
      4          6           0        0.313577   -0.172980   -2.259737
      5         16           0        1.650072   -0.952806   -1.464846
      6          6           0       -1.034411    0.455826    1.104486
      7          6           0       -2.043923   -0.636806    1.431474
      8          1           0       -2.685525   -0.294062    2.245672
      9          1           0       -2.674897   -0.868724    0.570898
     10          1           0       -1.532986   -1.545032    1.754302
     11          1           0       -1.523632    1.376939    0.790818
     12          1           0       -0.381172    0.651984    1.947420
     13          1           0       -1.479084    0.828260   -1.525091
     14          6           0        0.202228   -0.067631   -3.748270
     15          8           0       -1.023310    0.589830   -4.041264
     16          1           0        0.230484   -1.070662   -4.189973
     17          1           0        1.057846    0.494876   -4.139738
     18          1           0       -1.090140    0.697124   -4.996041
     19          6           0        1.745179   -1.069467    1.337331
     20          8           0        1.251406   -0.755814    2.433952
     21          8           0        2.780085   -1.707833    1.058897
 ---------------------------------------------------------------------

 SCF Done:  E(RB3LYP) =  -951.009229591     A.U. after    1 cycles

 Alpha  occ. eigenvalues --  -88.92669 -19.15056 -19.08886 -19.08762 -14.43443
 Alpha  occ. eigenvalues --  -10.29371 -10.28698 -10.25592 -10.24871 -10.24753
 Alpha  occ. eigenvalues --  -10.23113 -10.17662  -8.01236  -5.97512  -5.97109
 Alpha  occ. eigenvalues --   -5.96876  -1.06595  -1.05442  -1.04377  -0.97438
 Alpha  occ. eigenvalues --   -0.88100  -0.81160  -0.78438  -0.73058  -0.67734
 Alpha  occ. eigenvalues --   -0.63941  -0.62047  -0.55931  -0.54610  -0.51388
 Alpha  occ. eigenvalues --   -0.50283  -0.48491  -0.47675  -0.46856  -0.46127
 Alpha  occ. eigenvalues --   -0.44644  -0.42671  -0.42379  -0.40638  -0.39652
 Alpha  occ. eigenvalues --   -0.38921  -0.37999  -0.37167  -0.32952  -0.30792
 Alpha  occ. eigenvalues --   -0.28531  -0.27814  -0.27660  -0.26536
 Alpha virt. eigenvalues --   -0.09148  -0.02013  -0.01358  -0.00545   0.00784
 Alpha virt. eigenvalues --    0.02011   0.02794   0.03006   0.03621   0.04151
 Alpha virt. eigenvalues --    0.04598   0.05938   0.06356   0.06857   0.06997

 Mulliken charges:
               1
     1  N    0.368294
     2  C   -0.240655
     3  C   -0.190071
     4  C    0.184824
     5  S   -0.047877
     6  C   -0.247298
     7  C   -0.383624
     8  H    0.166839
     9  H    0.153265
    10  H    0.165150
    11  H    0.178625
    12  H    0.207646
    13  H    0.182844
    14  C    0.079024
    15  O   -0.356394
    16  H    0.188928
    17  H    0.192022
    18  H    0.288468
    19  C    0.098361
    20  O   -0.480919
    21  O   -0.507453
 Sum of Mulliken charges =  -0.00000

 Dipole moment (field-independent basis, Debye):
    X=             -7.8327    Y=              4.5074    Z=            -11.5872  Tot=             14.6946
 Quadrupole moment (field-independent basis, Debye-Ang):
   XX=            -93.7747   YY=            -83.8091   ZZ=            -62.8103
   XY=             11.0239   XZ=            -19.3554   YZ=              9.6349

  Exact polarizability:     158.466     -30.226     115.361      -3.105      -3.554     189.315
 Approx polarizability:     187.226     -41.219     137.031      -9.965       2.897     213.884

 Summary of Natural Population Analysis:

                                       Natural Population
                Natural  -----------------------------------------------
    Atom  No    Charge         Core      Valence    Rydberg      Total
 -----------------------------------------------------------------------
      N    1   -0.34553      1.99915     5.32403    0.02234     7.34553
      C    2    0.04027      1.99915     3.92762    0.03296     5.95973
      C    3   -0.00848      1.99891     3.98824    0.02133     6.00848
      C    4   -0.20192      1.99900     4.18101    0.02190     6.20192
      S    5    0.58774      9.99874     5.37257    0.04094    15.41226
      C    6   -0.17533      1.99926     4.15951    0.01656     6.17533
      C    7   -0.58722      1.99935     4.57963    0.00825     6.58722
      H    8    0.22176      0.00000     0.77714    0.00111     0.77824
      H    9    0.20817      0.00000     0.79041    0.00142     0.79183
      H   10    0.21427      0.00000     0.78394    0.00180     0.78573
      H   11    0.21497      0.00000     0.78341    0.00162     0.78503
      H   12    0.24983      0.00000     0.74810    0.00207     0.75017
      H   13    0.25624      0.00000     0.74203    0.00173     0.74376
      C   14   -0.05255      1.99907     4.03103    0.02245     6.05255
      O   15   -0.74869      1.99978     6.73696    0.01195     8.74869
      H   16    0.19916      0.00000     0.79902    0.00183     0.80084
      H   17    0.20038      0.00000     0.79780    0.00181     0.79962
      H   18    0.48819      0.00000     0.50772    0.00409     0.51181
      C   19    0.73165      1.99939     3.20941    0.05955     5.26835
      O   20   -0.74028      1.99976     6.72631    0.01421     8.74028
      O   21   -0.75263      1.99977     6.73914    0.01371     8.75263
 =======================================================================
   * Total *   -0.00000     31.99134    65.70503    0.30363    98.00000

                      1                      2                      3
                      A                      A                      A
 Frequencies --      4.3215                33.0945                54.8423
 Red. masses --      3.6887                 7.9292                 2.9529
 Frc consts  --      0.0000                 0.0051                 0.0052
 IR Inten    --     82.5734                 0.4657                 5.2987
 Raman Activ --      2.2777                 2.7276                 1.0842

                      4                      5                      6
                      A                      A                      A
 Frequencies --     94.5441               115.7387               137.9710
 Red. masses --      2.5638                 3.9210                 5.6039
 Frc consts  --      0.0135                 0.0309                 0.0629
 IR Inten    --     24.3404                 1.2960                10.4368
 Raman Activ --      0.5088                 2.5831                 0.5466

                      7                      8                      9
                      A                      A                      A
 Frequencies --    145.4904               207.3970               227.9110
 Red. masses --      1.4234                 1.7675                 2.0189
 Frc consts  --      0.0178                 0.0448                 0.0618
 IR Inten    --    114.8053                 5.3544                 0.5438
 Raman Activ --      0.6740                 0.0956                 0.4251

                     10                     11                     12
                      A                      A                      A
 Frequencies --    240.4552               316.6776               355.1832
 Red. masses --      4.0389                 6.2690                 3.4373
 Frc consts  --      0.1376                 0.3704                 0.2555
 IR Inten    --      6.4189                 7.0329                 6.1779
 Raman Activ --      3.0217                 5.9490                 1.2343

                     13                     14                     15
                      A                      A                      A
 Frequencies --    373.6423               416.6282               480.8766
 Red. masses --      4.3293                 9.2995                 5.4428
 Frc consts  --      0.3561                 0.9511                 0.7415
 IR Inten    --      1.5866                27.7963                 2.3677
 Raman Activ --      5.5332                 1.4410                 1.4271

                     16                     17                     18
                      A                      A                      A
 Frequencies --    486.6777               564.9284               621.3095
 Red. masses --      5.9213                 4.2824                 5.7401
 Frc consts  --      0.8263                 0.8052                 1.3055
 IR Inten    --      1.0564                14.1292                 6.4929
 Raman Activ --      3.6284                20.1979                 7.3850

                     19                     20                     21
                      A                      A                      A
 Frequencies --    646.4313               772.1739               779.7913
 Red. masses --      4.1611                 3.8416                10.3759
 Frc consts  --      1.0245                 1.3496                 3.7173
 IR Inten    --     20.2484                24.5863                15.9757
 Raman Activ --      0.4152                13.3639                 3.3467

                     22                     23                     24
                      A                      A                      A
 Frequencies --    780.0053               809.4050               840.3189
 Red. masses --     11.0337                 1.2347                 1.3610
 Frc consts  --      3.9552                 0.4766                 0.5662
 IR Inten    --    207.2923                 1.3803                36.7479
 Raman Activ --     11.3193                 2.4271                 1.8803

                     25                     26                     27
                      A                      A                      A
 Frequencies --    929.5458              1021.2201              1025.2722
 Red. masses --      2.8914                 3.8229                 1.6582
 Frc consts  --      1.4720                 2.3490                 1.0270
 IR Inten    --      5.0994                 4.8759                 1.1501
 Raman Activ --     10.0225                29.8314                 1.6498

                     28                     29                     30
                      A                      A                      A
 Frequencies --   1051.7356              1108.2492              1116.1973
 Red. masses --      8.3779                 1.9198                 2.7187
 Frc consts  --      5.4601                 1.3892                 1.9957
 IR Inten    --    106.7091                14.2765                 1.0798
 Raman Activ --      9.9615                14.9347                 4.8876

                     31                     32                     33
                      A                      A                      A
 Frequencies --   1138.4389              1174.7905              1202.8319
 Red. masses --      2.8985                 4.6252                 1.2314
 Frc consts  --      2.2133                 3.7610                 1.0497
 IR Inten    --     22.4883                51.9415                46.1345
 Raman Activ --     29.7633                26.8828                 9.8348

                     34                     35                     36
                      A                      A                      A
 Frequencies --   1240.0891              1270.3401              1295.6936
 Red. masses --      1.4703                 1.0615                 1.4543
 Frc consts  --      1.3322                 1.0093                 1.4385
 IR Inten    --    110.4115                 0.2268                14.0030
 Raman Activ --      7.0104                11.6496                25.4956

                     37                     38                     39
                      A                      A                      A
 Frequencies --   1312.5389              1360.1503              1403.6887
 Red. masses --     12.1121                 1.9007                 1.3449
 Frc consts  --     12.2940                 2.0717                 1.5613
 IR Inten    --    559.9289                50.1336                 2.4905
 Raman Activ --    244.6726                26.5574                 9.6265

                     40                     41                     42
                      A                      A                      A
 Frequencies --   1413.5528              1458.4551              1467.0805
 Red. masses --      1.3190                 1.4570                 1.3185
 Frc consts  --      1.5528                 1.8260                 1.6720
 IR Inten    --      5.1047                36.8911                 8.4664
 Raman Activ --      7.1294                15.7348                80.7525

                     43                     44                     45
                      A                      A                      A
 Frequencies --   1483.6182              1489.2896              1496.8997
 Red. masses --      1.0559                 1.2820                 1.1284
 Frc consts  --      1.3694                 1.6753                 1.4897
 IR Inten    --     22.0008                 8.6852                34.0833
 Raman Activ --     12.1215               118.3004                56.8601

                     46                     47                     48
                      A                      A                      A
 Frequencies --   1508.5919              1619.5682              1682.5080
 Red. masses --      1.7448                 5.6083                11.7009
 Frc consts  --      2.3395                 8.6672                19.5157
 IR Inten    --     43.9841                24.3045               925.3809
 Raman Activ --    136.3674               118.0720                65.1892

                     49                     50                     51
                      A                      A                      A
 Frequencies --   3009.0578              3038.2305              3042.6342
 Red. masses --      1.0554                 1.1066                 1.0346
 Frc consts  --      5.6305                 6.0186                 5.6429
 IR Inten    --     37.5698                20.9400                20.1471
 Raman Activ --    451.3394               199.8588               331.7924

                     52                     53                     54
                      A                      A                      A
 Frequencies --   3097.0646              3111.1416              3122.3303
 Red. masses --      1.0688                 1.1029                 1.0991
 Frc consts  --      6.0403                 6.2898                 6.3133
 IR Inten    --     15.2098                25.2296                35.4312
 Raman Activ --    241.5025               168.2265               137.8124

                     55                     56                     57
                      A                      A                      A
 Frequencies --   3180.6401              3265.6749              3834.8888
 Red. masses --      1.1025                 1.0972                 1.0671
 Frc consts  --      6.5711                 6.8941                 9.2459
 IR Inten    --      2.2539                 9.0779               116.7295
 Raman Activ --     68.8955               193.5415               243.7780

 - Thermochemistry -
 -------------------
 Temperature   298.150 Kelvin.  Pressure   1.00000 Atm.
 Thermochemistry will use frequencies scaled by 0.9670.

 Molecular mass:   187.03032 amu.
 Principal axes and moments of inertia in atomic units:
                           1         2         3
     Eigenvalues --  1414.982023025.233774259.91968
           X            0.24812   0.90246   0.35213
           Y           -0.20238  -0.30718   0.92988
           Z            0.94735  -0.30199   0.10642
 This molecule is an asymmetric top.
 Rotational symmetry number  1.
 Warning -- assumption of classical behavior for rotation
           may cause significant error
 Rotational temperatures (Kelvin)      0.06121     0.02863     0.02033
 Rotational constants (GHZ):           1.27545     0.59656     0.42366
 Zero-point vibrational energy     401855.9 (Joules/Mol)
                                   96.04586 (Kcal/Mol)
 Warning -- explicit consideration of  18 degrees of freedom as
           vibrations may cause significant error
 Vibrational temperatures:      6.01    46.04    76.30   131.54   161.03
          (Kelvin)            191.96   202.42   288.55   317.09   334.54
                              440.59   494.17   519.85   579.65   669.04
                              677.11   785.98   864.43   899.38  1074.32
                             1084.92  1085.22  1126.12  1169.13  1293.27
                             1420.82  1426.46  1463.28  1541.90  1552.96
                             1583.91  1634.48  1673.50  1725.33  1767.42
                             1802.70  1826.13  1892.37  1952.95  1966.67
                             2029.14  2041.15  2064.15  2072.04  2082.63
                             2098.90  2253.30  2340.87  4186.49  4227.08
                             4233.21  4308.94  4328.52  4344.09  4425.22
                             4543.52  5335.47

 Zero-point correction=                           0.153059 (Hartree/Particle)
 Thermal correction to Energy=                    0.166213
 Thermal correction to Enthalpy=                  0.167158
 Thermal correction to Gibbs Free Energy=         0.109540
 Sum of electronic and zero-point Energies=           -950.856171
 Sum of electronic and thermal Energies=              -950.843016
 Sum of electronic and thermal Enthalpies=            -950.842072
 Sum of electronic and thermal Free Energies=         -950.899689

                     E (Thermal)             CV                S
                      KCal/Mol        Cal/Mol-Kelvin    Cal/Mol-Kelvin
 Total                  104.301             45.438            121.266
 Electronic               0.000              0.000              0.000
 Translational            0.889              2.981             41.584
 Rotational               0.889              2.981             31.278
 Vibrational            102.523             39.476             48.404
 Vibration     1          0.593              1.987              9.745
 Vibration     2          0.594              1.983              5.701
 Vibration     3          0.596              1.976              4.701
 Vibration     4          0.602              1.955              3.629
 Vibration     5          0.607              1.940              3.235
 Vibration     6          0.613              1.920              2.896
 Vibration     7          0.615              1.913              2.794
 Vibration     8          0.638              1.839              2.128
 Vibration     9          0.647              1.810              1.956
 Vibration    10          0.653              1.791              1.859
 Vibration    11          0.697              1.662              1.383
 Vibration    12          0.722              1.589              1.196
 Vibration    13          0.735              1.552              1.116
 Vibration    14          0.768              1.464              0.952
 Vibration    15          0.822              1.328              0.752
 Vibration    16          0.828              1.315              0.736
 Vibration    17          0.901              1.148              0.552
 Vibration    18          0.959              1.030              0.448

 Normal termination of Gaussian 16 at Fri Jun  2 15:27:30 2023.
