 Gaussian 16, Revision C.01,
 Gaussian 16:  ES64L-G16RevC.01  3-Jul-2019

 ----------------------------------------------------------------------
 #p freq=raman scale=0.967 pop=(nbo,full,hirshfeld) guess=read geom=all
 check b3lyp/6-311+G(d,p) int=grid=ultrafine EmpiricalDispersion=GD3BJ
 SCRF=(Solvent=ethanol) scf=(xqc,intrep,maxconventionalcycle=350) nosym
 m
 ----------------------------------------------------------------------

 Structure from the checkpoint file:  "/scratch1/svicchi/G09-659810.pbs02/02-freq/2methylimidazolide-CO2_binding-site_index-1-freq.chk"
 -----------------------------------------------
 2methylimidazolide-CO2_binding-site_index-1.gjf
 -----------------------------------------------
 Charge = -1 Multiplicity = 1

                          Input orientation:
 ---------------------------------------------------------------------
 Center     Atomic      Atomic             Coordinates (Angstroms)
 Number     Number       Type             X           Y           Z
 ---------------------------------------------------------------------
      1          7           0       -1.130904   -0.073607   -0.010071
      2          7           0        0.971301   -0.797432    0.064315
      3          6           0       -0.359432   -1.149512   -0.019611
      4          6           0       -0.885249   -2.541317   -0.114182
      5          6           0       -0.276278    1.012495    0.083573
      6          6           0        1.019096    0.586576    0.129592
      7          1           0       -0.509481   -3.052060   -1.002702
      8          1           0       -0.585103   -3.142947    0.745121
      9          1           0       -1.973525   -2.489771   -0.159882
     10          1           0       -0.649507    2.024987    0.111527
     11          1           0        1.959378    1.102401    0.201550
     12          6           0        2.180667   -1.670479    0.088689
     13          8           0        1.951350   -2.888546    0.043997
     14          8           0        3.250891   -1.042122    0.151406
 ---------------------------------------------------------------------

 SCF Done:  E(RB3LYP) =  -453.829523148     A.U. after    3 cycles

 Alpha  occ. eigenvalues --  -19.06742 -19.06730 -14.35221 -14.28891 -10.28895
 Alpha  occ. eigenvalues --  -10.22437 -10.18445 -10.17617 -10.16136  -1.05258
 Alpha  occ. eigenvalues --   -0.99390  -0.95726  -0.85658  -0.76537  -0.68596
 Alpha  occ. eigenvalues --   -0.61407  -0.58467  -0.52335  -0.47086  -0.45627
 Alpha  occ. eigenvalues --   -0.43673  -0.42773  -0.41461  -0.40591  -0.39146
 Alpha  occ. eigenvalues --   -0.37701  -0.37621  -0.29051  -0.27384  -0.26272
 Alpha  occ. eigenvalues --   -0.26183  -0.24231  -0.22238
 Alpha virt. eigenvalues --    0.00432   0.01123   0.02735   0.03443   0.04578
 Alpha virt. eigenvalues --    0.05148   0.05387   0.05664   0.06531   0.07736
 Alpha virt. eigenvalues --    0.08529   0.08867   0.09147   0.09997   0.10489

 Mulliken charges:
               1
     1  N   -0.281239
     2  N   -0.144155
     3  C    0.192864
     4  C   -0.619825
     5  C   -0.193039
     6  C   -0.025615
     7  H    0.161403
     8  H    0.162564
     9  H    0.151661
    10  H    0.130027
    11  H    0.153552
    12  C    0.393835
    13  O   -0.539531
    14  O   -0.542502
 Sum of Mulliken charges =  -1.00000

 Dipole moment (field-independent basis, Debye):
    X=             -8.4220    Y=              7.3376    Z=             -0.3550  Tot=             11.1758
 Quadrupole moment (field-independent basis, Debye-Ang):
   XX=            -93.5338   YY=            -72.0930   ZZ=            -55.4147
   XY=             21.3411   XZ=             -1.3399   YZ=              0.8899

  Exact polarizability:     127.027      -0.906     127.571       2.716       2.341      70.065
 Approx polarizability:     141.148       2.322     142.399       3.056       2.668      78.435

 Summary of Natural Population Analysis:

                                       Natural Population
                Natural  -----------------------------------------------
    Atom  No    Charge         Core      Valence    Rydberg      Total
 -----------------------------------------------------------------------
      N    1   -0.57728      1.99941     5.55460    0.02326     7.57728
      N    2   -0.49198      1.99916     5.46593    0.02690     7.49198
      C    3    0.40295      1.99930     3.56645    0.03131     5.59705
      C    4   -0.61083      1.99928     4.60251    0.00904     6.61083
      C    5   -0.09902      1.99919     4.07211    0.02772     6.09902
      C    6   -0.07363      1.99915     4.05252    0.02195     6.07363
      H    7    0.22315      0.00000     0.77516    0.00170     0.77685
      H    8    0.22428      0.00000     0.77402    0.00170     0.77572
      H    9    0.21348      0.00000     0.78463    0.00188     0.78652
      H   10    0.20156      0.00000     0.79704    0.00140     0.79844
      H   11    0.22934      0.00000     0.76893    0.00173     0.77066
      C   12    0.91947      1.99960     3.02146    0.05947     5.08053
      O   13   -0.77496      1.99976     6.76242    0.01278     8.77496
      O   14   -0.78654      1.99976     6.77448    0.01230     8.78654
 =======================================================================
   * Total *   -1.00000     17.99460    47.77226    0.23314    66.00000

                      1                      2                      3
                      A                      A                      A
 Frequencies --     47.6041               146.6058               173.6845
 Red. masses --      7.2310                 3.7144                 1.2153
 Frc consts  --      0.0097                 0.0470                 0.0216
 IR Inten    --      0.0030                17.8119                 1.9649
 Raman Activ --      0.8448                 2.7031                 1.4711

                      4                      5                      6
                      A                      A                      A
 Frequencies --    226.3789               258.3288               351.5647
 Red. masses --      5.4939                 3.2406                 3.7234
 Frc consts  --      0.1659                 0.1274                 0.2711
 IR Inten    --      7.0946                 5.3877                 8.0373
 Raman Activ --      0.1097                 2.4821                 2.5409

                      7                      8                      9
                      A                      A                      A
 Frequencies --    410.8554               551.4874               630.0010
 Red. masses --      8.2307                 5.4116                 3.5417
 Frc consts  --      0.8186                 0.9697                 0.8282
 IR Inten    --      7.6736                10.3048                 0.0620
 Raman Activ --      6.3047                 3.0484                 1.1163

                     10                     11                     12
                      A                      A                      A
 Frequencies --    685.8127               702.7089               756.6432
 Red. masses --      3.9357                 5.0676                 1.3339
 Frc consts  --      1.0907                 1.4744                 0.4499
 IR Inten    --     19.3733                38.7868                94.0363
 Raman Activ --      2.3834                10.9109                 7.6067

                     13                     14                     15
                      A                      A                      A
 Frequencies --    776.3390               800.6597               862.6891
 Red. masses --     10.7594                10.4846                 1.3654
 Frc consts  --      3.8207                 3.9600                 0.5987
 IR Inten    --    313.5575                22.3507                 3.4222
 Raman Activ --     16.1720                 2.2830                 9.8606

                     16                     17                     18
                      A                      A                      A
 Frequencies --    937.2867               994.5647              1053.7751
 Red. masses --      4.6477                 1.6357                 1.5356
 Frc consts  --      2.4056                 0.9533                 1.0047
 IR Inten    --      3.5075                83.5831                92.8916
 Raman Activ --     10.3775                 4.3259                11.7761

                     19                     20                     21
                      A                      A                      A
 Frequencies --   1059.2070              1141.6995              1181.0473
 Red. masses --      1.5052                 2.5539                 3.6080
 Frc consts  --      0.9950                 1.9613                 2.9652
 IR Inten    --      3.4950                 9.8283                11.1616
 Raman Activ --      0.0852                24.5325                 6.5661

                     22                     23                     24
                      A                      A                      A
 Frequencies --   1222.1629              1285.0945              1337.2634
 Red. masses --      3.2681                 8.3978                 4.8728
 Frc consts  --      2.8761                 8.1712                 5.1341
 IR Inten    --    451.5281               636.2615                 7.0508
 Raman Activ --     64.1327                27.9377                27.1715

                     25                     26                     27
                      A                      A                      A
 Frequencies --   1400.3348              1423.0929              1458.5436
 Red. masses --      1.3206                 2.2516                 1.0458
 Frc consts  --      1.5258                 2.6866                 1.3108
 IR Inten    --      2.5557                43.5518                10.7636
 Raman Activ --      4.4175                 2.2735                16.1322

                     28                     29                     30
                      A                      A                      A
 Frequencies --   1470.2375              1519.8582              1548.7138
 Red. masses --      1.4676                 4.0198                 5.0047
 Frc consts  --      1.8692                 5.4709                 7.0724
 IR Inten    --     11.8976                20.2167                15.8053
 Raman Activ --     77.1036               166.4174                 2.3704

                     31                     32                     33
                      A                      A                      A
 Frequencies --   1709.1331              3046.9969              3102.5967
 Red. masses --     12.7027                 1.0349                 1.1001
 Frc consts  --     21.8624                 5.6609                 6.2391
 IR Inten    --   1161.3133                33.0474                20.0487
 Raman Activ --     12.8176               454.8273               166.1871

                     34                     35                     36
                      A                      A                      A
 Frequencies --   3125.9198              3228.3457              3289.1515
 Red. masses --      1.1032                 1.0948                 1.1013
 Frc consts  --      6.3515                 6.7230                 7.0198
 IR Inten    --     26.4866                15.6432                 5.1148
 Raman Activ --    166.0696               208.0356               167.9324

 - Thermochemistry -
 -------------------
 Temperature   298.150 Kelvin.  Pressure   1.00000 Atm.
 Thermochemistry will use frequencies scaled by 0.9670.

 Molecular mass:   125.03510 amu.
 Principal axes and moments of inertia in atomic units:
                           1         2         3
     Eigenvalues --   643.328131084.056981716.24578
           X            0.87365   0.48399  -0.04992
           Y           -0.48601   0.87294  -0.04211
           Z            0.02319   0.06105   0.99787
 This molecule is an asymmetric top.
 Rotational symmetry number  1.
 Warning -- assumption of classical behavior for rotation
           may cause significant error
 Rotational temperatures (Kelvin)      0.13463     0.07990     0.05047
 Rotational constants (GHZ):           2.80532     1.66480     1.05156
 Zero-point vibrational energy     254010.0 (Joules/Mol)
                                   60.70984 (Kcal/Mol)
 Warning -- explicit consideration of   9 degrees of freedom as
           vibrations may cause significant error
 Vibrational temperatures:     66.23   203.97   241.65   314.96   359.41
          (Kelvin)            489.13   571.62   767.28   876.52   954.17
                              977.68  1052.72  1080.12  1113.96  1200.26
                             1304.04  1383.74  1466.11  1473.67  1588.44
                             1643.19  1700.39  1787.95  1860.53  1948.28
                             1979.95  2029.27  2045.54  2114.57  2154.72
                             2377.91  4239.28  4316.63  4349.08  4491.59
                             4576.19

 Zero-point correction=                           0.096747 (Hartree/Particle)
 Thermal correction to Energy=                    0.104648
 Thermal correction to Enthalpy=                  0.105592
 Thermal correction to Gibbs Free Energy=         0.063574
 Sum of electronic and zero-point Energies=           -453.732776
 Sum of electronic and thermal Energies=              -453.724875
 Sum of electronic and thermal Enthalpies=            -453.723931
 Sum of electronic and thermal Free Energies=         -453.765950

                     E (Thermal)             CV                S
                      KCal/Mol        Cal/Mol-Kelvin    Cal/Mol-Kelvin
 Total                   65.668             28.467             88.435
 Electronic               0.000              0.000              0.000
 Translational            0.889              2.981             40.384
 Rotational               0.889              2.981             28.572
 Vibrational             63.890             22.506             19.479
 Vibration     1          0.595              1.979              4.981
 Vibration     2          0.615              1.911              2.780
 Vibration     3          0.625              1.882              2.458
 Vibration     4          0.647              1.812              1.968
 Vibration     5          0.663              1.763              1.732
 Vibration     6          0.720              1.596              1.212
 Vibration     7          0.764              1.476              0.973
 Vibration     8          0.888              1.176              0.580
 Vibration     9          0.968              1.012              0.434

 Optimization completed.
    -- Stationary point found.
 Normal termination of Gaussian 16 at Fri Jun  2 12:04:00 2023.
