 Gaussian 16, Revision C.01,
 Gaussian 16:  ES64L-G16RevC.01  3-Jul-2019

 ----------------------------------------------------------------------
 #p freq=raman scale=0.967 pop=(nbo,full,hirshfeld) guess=read geom=all
 check b3lyp/6-311+G(d,p) int=grid=ultrafine EmpiricalDispersion=GD3BJ
 SCRF=(Solvent=ethanol) scf=(xqc,intrep,maxconventionalcycle=350) nosym
 m
 ----------------------------------------------------------------------

 Structure from the checkpoint file:  "/scratch1/svicchi/G09-659807.pbs02/02-freq/2methylimidazolide-isolated-freq.chk"
 -------------------------------
 2methylimidazolide-isolated.gjf
 -------------------------------
 Charge = -1 Multiplicity = 1

                          Input orientation:
 ---------------------------------------------------------------------
 Center     Atomic      Atomic             Coordinates (Angstroms)
 Number     Number       Type             X           Y           Z
 ---------------------------------------------------------------------
      1          7           0       -1.167558   -0.028531   -0.184446
      2          7           0        0.967552   -0.703520    0.220250
      3          6           0       -0.321862   -1.060764    0.029296
      4          6           0       -0.771321   -2.492803    0.012741
      5          6           0       -0.353417    1.080932   -0.128733
      6          6           0        0.946876    0.670065    0.118129
      7          1           0       -0.787353   -2.905431   -1.003990
      8          1           0       -0.098431   -3.115695    0.606637
      9          1           0       -1.782014   -2.591511    0.417498
     10          1           0       -0.743411    2.082789   -0.257366
     11          1           0        1.844039    1.265130    0.233534
 ---------------------------------------------------------------------

 SCF Done:  E(RB3LYP) =  -265.149318590     A.U. after    1 cycles

 Alpha  occ. eigenvalues --  -14.25301 -14.25271 -10.16955 -10.14665 -10.14194
 Alpha  occ. eigenvalues --  -10.14133  -0.94066  -0.78869  -0.72921  -0.64535
 Alpha  occ. eigenvalues --   -0.53733  -0.49428  -0.45255  -0.40880  -0.40272
 Alpha  occ. eigenvalues --   -0.35232  -0.35131  -0.34794  -0.26563  -0.22766
 Alpha  occ. eigenvalues --   -0.22467  -0.18062
 Alpha virt. eigenvalues --    0.01577   0.02912   0.04320   0.05250   0.05931
 Alpha virt. eigenvalues --    0.06381   0.06513   0.06659   0.08263   0.09700
 Alpha virt. eigenvalues --    0.09942   0.10072   0.11415   0.13306   0.14561

 Mulliken charges:
               1
     1  N   -0.399498
     2  N   -0.398088
     3  C    0.215012
     4  C   -0.680721
     5  C   -0.166041
     6  C   -0.171269
     7  H    0.136868
     8  H    0.136966
     9  H    0.136207
    10  H    0.095276
    11  H    0.095289
 Sum of Mulliken charges =  -1.00000

 Dipole moment (field-independent basis, Debye):
    X=              0.3485    Y=              1.3475    Z=             -0.0848  Tot=              1.3944
 Quadrupole moment (field-independent basis, Debye-Ang):
   XX=            -49.9966   YY=            -40.1494   ZZ=            -42.1175
   XY=              3.4709   XZ=             -1.6027   YZ=              0.5007

  Exact polarizability:     102.136       1.386     105.319       5.917      -1.486      69.064
 Approx polarizability:     113.829      -0.452     111.592       7.221      -2.002      73.839

 Summary of Natural Population Analysis:

                                       Natural Population
                Natural  -----------------------------------------------
    Atom  No    Charge         Core      Valence    Rydberg      Total
 -----------------------------------------------------------------------
      N    1   -0.65995      1.99943     5.63270    0.02782     7.65995
      N    2   -0.65909      1.99943     5.63195    0.02770     7.65909
      C    3    0.28615      1.99934     3.67422    0.04028     5.71385
      C    4   -0.60837      1.99929     4.59895    0.01012     6.60837
      C    5   -0.16061      1.99920     4.12867    0.03273     6.16061
      C    6   -0.16237      1.99920     4.13038    0.03278     6.16237
      H    7    0.19734      0.00000     0.80093    0.00173     0.80266
      H    8    0.20394      0.00000     0.79440    0.00166     0.79606
      H    9    0.20305      0.00000     0.79529    0.00166     0.79695
      H   10    0.17991      0.00000     0.81825    0.00184     0.82009
      H   11    0.17998      0.00000     0.81819    0.00183     0.82002
 =======================================================================
   * Total *   -1.00000     11.99591    31.82393    0.18016    44.00000

                      1                      2                      3
                      A                      A                      A
 Frequencies --     58.1365               254.5266               362.7914
 Red. masses --      1.0606                 3.1798                 2.7062
 Frc consts  --      0.0021                 0.1214                 0.2099
 IR Inten    --      0.0060                18.8362                16.4612
 Raman Activ --      2.8005                 5.0812                 1.3234

                      4                      5                      6
                      A                      A                      A
 Frequencies --    663.3844               681.1012               713.1140
 Red. masses --      3.6977                 4.3088                 4.6608
 Frc consts  --      0.9588                 1.1777                 1.3965
 IR Inten    --      0.0167                 5.8338                15.3486
 Raman Activ --      0.1209                13.6394                 5.8377

                      7                      8                      9
                      A                      A                      A
 Frequencies --    739.8138               807.3248               947.4988
 Red. masses --      1.2471                 1.3625                 8.0648
 Frc consts  --      0.4022                 0.5232                 4.2658
 IR Inten    --    112.3860                 0.1870                11.7992
 Raman Activ --     31.6062                22.6858                 2.1413

                     10                     11                     12
                      A                      A                      A
 Frequencies --    983.5093               983.7019              1048.1658
 Red. masses --      1.8005                 2.1907                 1.5106
 Frc consts  --      1.0261                 1.2490                 0.9778
 IR Inten    --     16.5720                12.9019                 6.4493
 Raman Activ --      1.3702                 5.6473                13.7696

                     13                     14                     15
                      A                      A                      A
 Frequencies --   1110.6035              1142.0875              1196.6600
 Red. masses --      1.7795                 2.0024                 7.0715
 Frc consts  --      1.2932                 1.5389                 5.9663
 IR Inten    --      5.5810                44.2037                20.8471
 Raman Activ --     43.0134                 9.9753                36.4821

                     16                     17                     18
                      A                      A                      A
 Frequencies --   1296.9259              1383.8367              1425.8682
 Red. masses --      3.4555                 1.3134                 2.5038
 Frc consts  --      3.4245                 1.4819                 2.9992
 IR Inten    --     17.2068                 9.9214               113.9530
 Raman Activ --     35.8533                 9.2924                 2.0810

                     19                     20                     21
                      A                      A                      A
 Frequencies --   1446.7095              1463.1948              1471.8342
 Red. masses --      4.4792                 3.6888                 1.1355
 Frc consts  --      5.5235                 4.6531                 1.4493
 IR Inten    --     34.4866                 0.3915                15.4331
 Raman Activ --    200.1356                47.3561                13.6999

                     22                     23                     24
                      A                      A                      A
 Frequencies --   1489.7824              2996.8398              3056.2620
 Red. masses --      1.1597                 1.0508                 1.0834
 Frc consts  --      1.5166                 5.5601                 5.9625
 IR Inten    --      2.0839               102.0840                50.0333
 Raman Activ --     23.8311               500.3310               211.6975

                     25                     26                     27
                      A                      A                      A
 Frequencies --   3095.0032              3173.2639              3196.2988
 Red. masses --      1.1013                 1.0867                 1.1030
 Frc consts  --      6.2154                 6.4470                 6.6393
 IR Inten    --     42.3286                20.2348                71.3248
 Raman Activ --    153.2852               200.6105               280.0536

 - Thermochemistry -
 -------------------
 Temperature   298.150 Kelvin.  Pressure   1.00000 Atm.
 Thermochemistry will use frequencies scaled by 0.9670.

 Molecular mass:    81.04527 amu.
 Principal axes and moments of inertia in atomic units:
                           1         2         3
     Eigenvalues --   195.56857 491.90099 676.25397
           X            0.30241   0.93828  -0.16787
           Y            0.95316  -0.29661   0.05923
           Z           -0.00579   0.17792   0.98403
 This molecule is an asymmetric top.
 Rotational symmetry number  1.
 Rotational temperatures (Kelvin)      0.44288     0.17608     0.12808
 Rotational constants (GHZ):           9.22818     3.66891     2.66873
 Zero-point vibrational energy     215094.7 (Joules/Mol)
                                   51.40887 (Kcal/Mol)
 Warning -- explicit consideration of   3 degrees of freedom as
           vibrations may cause significant error
 Vibrational temperatures:     80.89   354.12   504.75   922.96   947.61
          (Kelvin)            992.15  1029.30  1123.23  1318.25  1368.35
                             1368.62  1458.31  1545.18  1588.98  1664.91
                             1804.41  1925.33  1983.81  2012.80  2035.74
                             2047.76  2072.73  4169.50  4252.17  4306.07
                             4414.95  4447.00

 Zero-point correction=                           0.081925 (Hartree/Particle)
 Thermal correction to Energy=                    0.087314
 Thermal correction to Enthalpy=                  0.088258
 Thermal correction to Gibbs Free Energy=         0.052804
 Sum of electronic and zero-point Energies=           -265.067393
 Sum of electronic and thermal Energies=              -265.062005
 Sum of electronic and thermal Enthalpies=            -265.061060
 Sum of electronic and thermal Free Energies=         -265.096514

                     E (Thermal)             CV                S
                      KCal/Mol        Cal/Mol-Kelvin    Cal/Mol-Kelvin
 Total                   54.790             18.804             74.619
 Electronic               0.000              0.000              0.000
 Translational            0.889              2.981             39.092
 Rotational               0.889              2.981             25.679
 Vibrational             53.013             12.842              9.849
 Vibration     1          0.596              1.975              4.586
 Vibration     2          0.661              1.769              1.758
 Vibration     3          0.728              1.574              1.163

 Normal termination of Gaussian 16 at Fri Jun  2 11:30:33 2023.
