 Gaussian 16, Revision C.01,
 Gaussian 16:  ES64L-G16RevC.01  3-Jul-2019

 ----------------------------------------------------------------------
 #p freq=raman scale=0.967 pop=(nbo,full,hirshfeld) guess=read geom=all
 check b3lyp/6-311+G(d,p) int=grid=ultrafine EmpiricalDispersion=GD3BJ
 SCRF=(Solvent=ethanol) scf=(xqc,intrep,maxconventionalcycle=350) nosym
 m
 ----------------------------------------------------------------------

 Structure from the checkpoint file:  "/scratch1/svicchi/G09-659834.pbs02/02-freq/indazolide-H_dissociation-site_index-0-freq.chk"
 ------------------------------------------
 indazolide-H_dissociation-site_index-0.gjf
 ------------------------------------------
 Charge =  0 Multiplicity = 1

                          Input orientation:
 ---------------------------------------------------------------------
 Center     Atomic      Atomic             Coordinates (Angstroms)
 Number     Number       Type             X           Y           Z
 ---------------------------------------------------------------------
      1          7           0       -1.530003   -1.069876    0.168972
      2          7           0       -2.370415   -0.003578    0.230671
      3          6           0       -0.220919   -0.693155    0.074782
      4          6           0       -0.226662    0.724680    0.076488
      5          6           0        0.966412   -1.434717   -0.011978
      6          6           0        0.989479    1.426059   -0.010965
      7          6           0       -1.607226    1.074167    0.176541
      8          6           0        2.147066   -0.717615   -0.096961
      9          6           0        2.162205    0.697830   -0.096717
     10          1           0        0.959288   -2.517558   -0.012440
     11          1           0        1.004430    2.509504   -0.011029
     12          1           0       -2.053549    2.056706    0.209629
     13          1           0        3.086896   -1.252805   -0.165660
     14          1           0        3.112739    1.213090   -0.165166
     15          1           0       -1.910099   -2.002608    0.196188
 ---------------------------------------------------------------------

 SCF Done:  E(RB3LYP) =  -379.980145665     A.U. after    1 cycles

 Alpha  occ. eigenvalues --  -14.38879 -14.35286 -10.22357 -10.20476 -10.18898
 Alpha  occ. eigenvalues --  -10.18846 -10.18713 -10.18635 -10.18004  -1.05661
 Alpha  occ. eigenvalues --   -0.86771  -0.83757  -0.77071  -0.75449  -0.64554
 Alpha  occ. eigenvalues --   -0.62299  -0.61372  -0.55410  -0.51019  -0.47156
 Alpha  occ. eigenvalues --   -0.46322  -0.45832  -0.44887  -0.42864  -0.38035
 Alpha  occ. eigenvalues --   -0.36290  -0.35689  -0.31303  -0.30689  -0.25694
 Alpha  occ. eigenvalues --   -0.23576
 Alpha virt. eigenvalues --   -0.04669  -0.00244   0.00528   0.01877   0.02192
 Alpha virt. eigenvalues --    0.02327   0.04041   0.04451   0.05039   0.05578
 Alpha virt. eigenvalues --    0.06998   0.07416   0.07630   0.08503   0.09671

 Mulliken charges:
               1
     1  N   -0.112453
     2  N   -0.236229
     3  C   -0.662075
     4  C    1.695548
     5  C    0.029136
     6  C   -1.491749
     7  C    0.069296
     8  C   -0.455652
     9  C    0.079538
    10  H    0.144969
    11  H    0.146715
    12  H    0.145449
    13  H    0.150635
    14  H    0.146640
    15  H    0.350230
 Sum of Mulliken charges =   0.00000

 Dipole moment (field-independent basis, Debye):
    X=              1.9767    Y=             -1.4594    Z=             -0.1430  Tot=              2.4613
 Quadrupole moment (field-independent basis, Debye-Ang):
   XX=            -55.7488   YY=            -39.9919   ZZ=            -56.9626
   XY=              2.0487   XZ=              0.0285   YZ=             -0.2222

  Exact polarizability:     173.676      -0.590     136.617      -7.556       0.106      70.074
 Approx polarizability:     207.704       3.223     174.171      -9.265      -0.144      80.375

 Summary of Natural Population Analysis:

                                       Natural Population
                Natural  -----------------------------------------------
    Atom  No    Charge         Core      Valence    Rydberg      Total
 -----------------------------------------------------------------------
      N    1   -0.35815      1.99930     5.33553    0.02331     7.35815
      N    2   -0.29560      1.99948     5.26854    0.02758     7.29560
      C    3    0.14714      1.99899     3.83386    0.02001     5.85286
      C    4   -0.14639      1.99900     4.13129    0.01610     6.14639
      C    5   -0.23587      1.99907     4.21972    0.01708     6.23587
      C    6   -0.17818      1.99909     4.16199    0.01710     6.17818
      C    7   -0.01557      1.99923     3.98648    0.02987     6.01557
      C    8   -0.19733      1.99919     4.17970    0.01844     6.19733
      C    9   -0.23595      1.99918     4.21798    0.01880     6.23595
      H   10    0.22610      0.00000     0.77220    0.00171     0.77390
      H   11    0.22020      0.00000     0.77824    0.00156     0.77980
      H   12    0.21572      0.00000     0.78280    0.00147     0.78428
      H   13    0.21623      0.00000     0.78248    0.00129     0.78377
      H   14    0.21567      0.00000     0.78298    0.00135     0.78433
      H   15    0.42197      0.00000     0.57593    0.00210     0.57803
 =======================================================================
   * Total *   -0.00000     17.99253    43.80971    0.19776    62.00000

                      1                      2                      3
                      A                      A                      A
 Frequencies --    209.8635               250.7648               404.7184
 Red. masses --      5.3950                 4.1655                 4.2355
 Frc consts  --      0.1400                 0.1543                 0.4088
 IR Inten    --      3.0352                 0.2667                 3.0482
 Raman Activ --      0.9409                 0.0978                 1.4476

                      4                      5                      6
                      A                      A                      A
 Frequencies --    424.4598               438.2407               546.3323
 Red. masses --      1.7094                 2.0482                 7.1316
 Frc consts  --      0.1815                 0.2318                 1.2541
 IR Inten    --     92.5370                10.9086                 0.6560
 Raman Activ --      0.2061                 1.0065                11.6744

                      7                      8                      9
                      A                      A                      A
 Frequencies --    579.0947               631.4648               663.7984
 Red. masses --      3.0867                 6.5216                 3.2852
 Frc consts  --      0.6099                 1.5322                 0.8529
 IR Inten    --      5.7632                 3.6385                78.5315
 Raman Activ --      0.5472                21.4114                 0.7609

                     10                     11                     12
                      A                      A                      A
 Frequencies --    754.3877               759.2915               784.0057
 Red. masses --      1.2878                 3.8348                 5.4712
 Frc consts  --      0.4318                 1.3026                 1.9814
 IR Inten    --     82.1262                10.4049                11.3314
 Raman Activ --      5.3758                 0.3559                66.3592

                     13                     14                     15
                      A                      A                      A
 Frequencies --    850.8712               866.7505               907.6943
 Red. masses --      1.2596                 1.5191                 5.3778
 Frc consts  --      0.5373                 0.6724                 2.6106
 IR Inten    --     28.8977                18.0467                 5.1648
 Raman Activ --      0.4285                 5.6678                 2.5842

                     16                     17                     18
                      A                      A                      A
 Frequencies --    957.2046               961.9903               995.9417
 Red. masses --      3.7951                 1.3568                 1.2834
 Frc consts  --      2.0487                 0.7398                 0.7500
 IR Inten    --     54.4482                 2.2295                 0.0002
 Raman Activ --     14.8396                 4.2446                 1.1421

                     19                     20                     21
                      A                      A                      A
 Frequencies --   1024.8965              1099.3273              1141.0059
 Red. masses --      2.2186                 3.8538                 1.4877
 Frc consts  --      1.3731                 2.7440                 1.1412
 IR Inten    --     24.5703                39.0896                 9.5359
 Raman Activ --     65.9546                62.9083                17.6071

                     22                     23                     24
                      A                      A                      A
 Frequencies --   1167.6525              1225.8188              1268.7242
 Red. masses --      1.1685                 1.6495                 1.8090
 Frc consts  --      0.9387                 1.4603                 1.7156
 IR Inten    --     11.7649                10.9996                11.1343
 Raman Activ --      6.9505                27.2655                 6.0834

                     25                     26                     27
                      A                      A                      A
 Frequencies --   1290.7396              1335.7828              1378.2188
 Red. masses --      2.4006                 3.4935                 2.7767
 Frc consts  --      2.3564                 3.6727                 3.1075
 IR Inten    --      7.4392                 7.4917                55.0516
 Raman Activ --     53.9743                51.0728                69.4077

                     28                     29                     30
                      A                      A                      A
 Frequencies --   1418.0994              1450.2910              1514.1305
 Red. masses --      2.6275                 2.6954                 2.4552
 Frc consts  --      3.1132                 3.3403                 3.3164
 IR Inten    --     16.0488                 9.0766                12.3219
 Raman Activ --     99.2993               133.0767               142.7444

                     31                     32                     33
                      A                      A                      A
 Frequencies --   1532.3044              1617.8606              1658.5067
 Red. masses --      3.4031                 5.3491                 6.5713
 Frc consts  --      4.7078                 8.2493                10.6496
 IR Inten    --     21.7971                 2.4037                34.3064
 Raman Activ --     31.7268                55.2241                29.1043

                     34                     35                     36
                      A                      A                      A
 Frequencies --   3171.7053              3180.8474              3191.8178
 Red. masses --      1.0863                 1.0892                 1.0946
 Frc consts  --      6.4383                 6.4930                 6.5702
 IR Inten    --      0.7129                11.5248                30.7011
 Raman Activ --    112.6539               245.9977               153.2277

                     37                     38                     39
                      A                      A                      A
 Frequencies --   3199.0094              3234.7241              3657.4276
 Red. masses --      1.0965                 1.0969                 1.0823
 Frc consts  --      6.6116                 6.7624                 8.5301
 IR Inten    --     13.3865                 5.7366               180.3334
 Raman Activ --    601.3562               246.5838               254.0258

 - Thermochemistry -
 -------------------
 Temperature   298.150 Kelvin.  Pressure   1.00000 Atm.
 Thermochemistry will use frequencies scaled by 0.9670.

 Molecular mass:   118.05310 amu.
 Principal axes and moments of inertia in atomic units:
                           1         2         3
     Eigenvalues --   453.957891103.115231557.07310
           X            0.99735  -0.00933   0.07220
           Y            0.00942   0.99996  -0.00092
           Z           -0.07219   0.00160   0.99739
 This molecule is an asymmetric top.
 Rotational symmetry number  1.
 Warning -- assumption of classical behavior for rotation
           may cause significant error
 Rotational temperatures (Kelvin)      0.19080     0.07852     0.05563
 Rotational constants (GHZ):           3.97557     1.63604     1.15906
 Zero-point vibrational energy     299294.6 (Joules/Mol)
                                   71.53313 (Kcal/Mol)
 Warning -- explicit consideration of   8 degrees of freedom as
           vibrations may cause significant error
 Vibrational temperatures:    291.98   348.89   563.08   590.55   609.72
          (Kelvin)            760.11   805.69   878.56   923.54  1049.58
                             1056.40  1090.79  1183.81  1205.91  1262.87
                             1331.76  1338.41  1385.65  1425.94  1529.49
                             1587.48  1624.55  1705.48  1765.17  1795.80
                             1858.47  1917.51  1973.00  2017.79  2106.61
                             2131.89  2250.93  2307.48  4412.79  4425.50
                             4440.77  4450.77  4500.46  5088.57

 Zero-point correction=                           0.113995 (Hartree/Particle)
 Thermal correction to Energy=                    0.120311
 Thermal correction to Enthalpy=                  0.121256
 Thermal correction to Gibbs Free Energy=         0.083636
 Sum of electronic and zero-point Energies=           -379.866150
 Sum of electronic and thermal Energies=              -379.859834
 Sum of electronic and thermal Enthalpies=            -379.858890
 Sum of electronic and thermal Free Energies=         -379.896510

                     E (Thermal)             CV                S
                      KCal/Mol        Cal/Mol-Kelvin    Cal/Mol-Kelvin
 Total                   75.497             26.123             79.177
 Electronic               0.000              0.000              0.000
 Translational            0.889              2.981             40.213
 Rotational               0.889              2.981             28.146
 Vibrational             73.719             20.161             10.818
 Vibration     1          0.639              1.836              2.106
 Vibration     2          0.659              1.775              1.785
 Vibration     3          0.759              1.489              0.995
 Vibration     4          0.775              1.448              0.925
 Vibration     5          0.786              1.419              0.879
 Vibration     6          0.883              1.187              0.591
 Vibration     7          0.916              1.118              0.524
 Vibration     8          0.970              1.009              0.432

 Optimization completed.
    -- Stationary point found.
 Normal termination of Gaussian 16 at Fri Jun  2 11:46:32 2023.
