 Gaussian 16, Revision C.02,
 Gaussian 16:  ES64L-G16RevC.02  7-Dec-2021

 ----------------------------------------------------------------------
 #p freq=raman scale=0.967 guess=read geom=allcheck b3lyp/6-311+G(d,p)
 int=grid=ultrafine EmpiricalDispersion=GD3BJ SCRF=(Solvent=ethanol) sc
 f=(xqc,intrep,maxconventionalcycle=350) nosymm
 ----------------------------------------------------------------------

 Structure from the checkpoint file:  "/scratch1/svicchi/G09-1868874.pbs02/02-freq/IMIDCHO-isolated-freq.chk"
 ----------------
 IMIDCHO-isolated
 ----------------
 Charge = -1 Multiplicity = 1

                          Input orientation:
 ---------------------------------------------------------------------
 Center     Atomic      Atomic             Coordinates (Angstroms)
 Number     Number       Type             X           Y           Z
 ---------------------------------------------------------------------
      1          6           0       -1.973177    3.363430    0.266691
      2          7           0       -1.312197    2.197546    0.523059
      3          6           0       -2.029287    1.272558   -0.144708
      4          6           0       -3.112534    1.899163   -0.792972
      5          1           0       -1.759913    0.223939   -0.142111
      6          7           0       -3.076071    3.219796   -0.532313
      7          1           0       -3.880402    1.452556   -1.411261
      8          6           0       -1.603828    4.662127    0.755957
      9          1           0       -2.292916    5.460462    0.416762
     10          8           0       -0.643444    4.946223    1.476977
 ---------------------------------------------------------------------

 SCF Done:  E(RB3LYP) =  -339.198605230     A.U. after    1 cycles

 Alpha  occ. eigenvalues --  -19.09654 -14.28322 -14.28100 -10.23609 -10.18345
 Alpha  occ. eigenvalues --  -10.16943 -10.16736  -1.01970  -0.96735  -0.82234
 Alpha  occ. eigenvalues --   -0.72653  -0.62102  -0.55910  -0.50963  -0.47971
 Alpha  occ. eigenvalues --   -0.43748  -0.41039  -0.40242  -0.38890  -0.36006
 Alpha  occ. eigenvalues --   -0.28495  -0.25350  -0.25234  -0.24738  -0.20946
 Alpha virt. eigenvalues --   -0.03816   0.01627   0.03057   0.04023   0.05575
 Alpha virt. eigenvalues --    0.05595   0.05700   0.05707   0.07945   0.08241
 Alpha virt. eigenvalues --    0.10009   0.11040   0.11066   0.12261   0.13592

 Mulliken charges:
               1
     1  C    0.280172
     2  N   -0.344627
     3  C   -0.046046
     4  C   -0.157064
     5  H    0.115783
     6  N   -0.315627
     7  H    0.114895
     8  C   -0.323102
     9  H    0.109215
    10  O   -0.433600
 Sum of Mulliken charges =  -1.00000

 Dipole moment (field-independent basis, Debye):
    X=              6.7535    Y=            -17.1087    Z=             -3.3529  Tot=             18.6965
 Quadrupole moment (field-independent basis, Debye-Ang):
   XX=            -62.1124   YY=           -107.8863   ZZ=            -51.0773
   XY=             22.9049   XZ=             -1.3201   YZ=            -13.2070

  Exact polarizability:      94.368      16.002     135.884      29.706      25.401      81.345
 Approx polarizability:     110.723      21.669     157.831      37.877      32.184      94.389

                      1                      2                      3
                      A                      A                      A
 Frequencies --    161.6898               242.3136               307.7615
 Red. masses --      6.0565                 7.4095                 2.3627
 Frc consts  --      0.0933                 0.2563                 0.1319
 IR Inten    --      0.0785                 7.4244                35.5505
 Raman Activ --      4.0705                 1.8895                 2.4751

                      4                      5                      6
                      A                      A                      A
 Frequencies --    526.3386               665.1307               720.6320
 Red. masses --      9.2056                 3.3258                 9.2276
 Frc consts  --      1.5026                 0.8669                 2.8234
 IR Inten    --      5.8222                 0.3950                 1.4389
 Raman Activ --     35.3193                 0.0939                 0.0521

                      7                      8                      9
                      A                      A                      A
 Frequencies --    787.3755               812.3949               864.8677
 Red. masses --      5.6939                 1.2120                 1.4450
 Frc consts  --      2.0798                 0.4713                 0.6368
 IR Inten    --    212.5609                78.6820                 0.1820
 Raman Activ --     12.4564                34.1893                 4.0619

                     10                     11                     12
                      A                      A                      A
 Frequencies --    948.9734               982.2483              1014.5952
 Red. masses --      7.9049                 3.3556                 1.7193
 Frc consts  --      4.1942                 1.9075                 1.0428
 IR Inten    --     23.4048                 9.8512                 0.0722
 Raman Activ --     12.1665                45.0473                 2.2926

                     13                     14                     15
                      A                      A                      A
 Frequencies --   1082.0612              1187.6869              1228.9734
 Red. masses --      1.9687                 1.5642                 9.5243
 Frc consts  --      1.3581                 1.3000                 8.4755
 IR Inten    --     29.2777                47.9727               318.3954
 Raman Activ --    183.1979                 3.3651               267.1567

                     16                     17                     18
                      A                      A                      A
 Frequencies --   1297.9357              1377.1874              1418.6754
 Red. masses --      4.1990                 2.1574                 2.0636
 Frc consts  --      4.1678                 2.4108                 2.4470
 IR Inten    --     17.5532               176.7845                51.6291
 Raman Activ --     42.6360               197.4316               156.2412

                     19                     20                     21
                      A                      A                      A
 Frequencies --   1450.9692              1467.8421              1660.9189
 Red. masses --      3.2284                 4.9703                 7.7202
 Frc consts  --      4.0045                 6.3095                12.5481
 IR Inten    --     67.6655                62.8359              1218.9595
 Raman Activ --     40.9455                15.8167               561.7986

                     22                     23                     24
                      A                      A                      A
 Frequencies --   2910.5637              3183.4828              3203.2954
 Red. masses --      1.0812                 1.0890                 1.1015
 Frc consts  --      5.3965                 6.5025                 6.6593
 IR Inten    --    189.7314                14.5173                60.3547
 Raman Activ --    343.6758               213.1981               373.3337

 - Thermochemistry -
 -------------------
 Temperature   298.150 Kelvin.  Pressure   1.00000 Atm.
 Thermochemistry will use frequencies scaled by 0.9670.

 Molecular mass:    95.02454 amu.
 Principal axes and moments of inertia in atomic units:
                           1         2         3
     Eigenvalues --   211.46674 850.273261061.73962
           X            0.42475   0.70510  -0.56783
           Y            0.79223  -0.59304  -0.14379
           Z            0.43813   0.38878   0.81049
 This molecule is an asymmetric top.
 Rotational symmetry number  1.
 Rotational temperatures (Kelvin)      0.40959     0.10187     0.08158
 Rotational constants (GHZ):           8.53440     2.12254     1.69980
 Zero-point vibrational energy     170649.0 (Joules/Mol)
                                   40.78609 (Kcal/Mol)
 Warning -- explicit consideration of   4 degrees of freedom as
           vibrations may cause significant error
 Vibrational temperatures:    224.96   337.13   428.19   732.29   925.39
          (Kelvin)           1002.61  1095.47  1130.28  1203.29  1320.30
                             1366.60  1411.60  1505.47  1652.43  1709.87
                             1805.81  1916.08  1973.80  2018.73  2042.20
                             2310.83  4049.46  4429.17  4456.74

 Zero-point correction=                           0.064997 (Hartree/Particle)
 Thermal correction to Energy=                    0.070357
 Thermal correction to Enthalpy=                  0.071301
 Thermal correction to Gibbs Free Energy=         0.035768
 Sum of electronic and zero-point Energies=           -339.133608
 Sum of electronic and thermal Energies=              -339.128248
 Sum of electronic and thermal Enthalpies=            -339.127304
 Sum of electronic and thermal Free Energies=         -339.162838

                     E (Thermal)             CV                S
                      KCal/Mol        Cal/Mol-Kelvin    Cal/Mol-Kelvin
 Total                   44.150             19.085             74.787
 Electronic               0.000              0.000              0.000
 Translational            0.889              2.981             39.566
 Rotational               0.889              2.981             26.748
 Vibrational             42.372             13.123              8.473
 Vibration     1          0.620              1.896              2.593
 Vibration     2          0.654              1.788              1.846
 Vibration     3          0.691              1.678              1.430
 Vibration     4          0.864              1.230              0.636

 Optimization completed.
    -- Stationary point found.
 Normal termination of Gaussian 16 at Thu Jan 11 14:03:01 2024.
