 Gaussian 16, Revision C.01,
 Gaussian 16:  ES64L-G16RevC.01  3-Jul-2019

 ----------------------------------------------------------------------
 #p freq=raman scale=0.967 pop=(nbo,full,hirshfeld) guess=read geom=all
 check b3lyp/6-311+G(d,p) int=grid=ultrafine EmpiricalDispersion=GD3BJ
 SCRF=(Solvent=ethanol) scf=(xqc,intrep,maxconventionalcycle=350) nosym
 m
 ----------------------------------------------------------------------

 Structure from the checkpoint file:  "/scratch1/svicchi/G09-659839.pbs02/02-freq/tetrazolide-H_dissociation-site_index-3-freq.chk"
 -------------------------------------------
 tetrazolide-H_dissociation-site_index-3.gjf
 -------------------------------------------
 Charge =  0 Multiplicity = 1

                          Input orientation:
 ---------------------------------------------------------------------
 Center     Atomic      Atomic             Coordinates (Angstroms)
 Number     Number       Type             X           Y           Z
 ---------------------------------------------------------------------
      1          7           0        0.035358    1.055297   -0.002078
      2          7           0        1.139400    0.391004   -0.001264
      3          7           0       -1.091523    0.317370   -0.001115
      4          7           0        0.686052   -0.856838    0.000318
      5          6           0       -0.689977   -0.973891    0.000504
      6          1           0        0.041291    2.069959   -0.003348
      7          1           0        1.367936   -1.604156    0.001233
 ---------------------------------------------------------------------

 SCF Done:  E(RB3LYP) =  -258.288766514     A.U. after    1 cycles

 Alpha  occ. eigenvalues --  -14.46909 -14.43546 -14.42788 -14.36746 -10.21305
 Alpha  occ. eigenvalues --   -1.19083  -0.98231  -0.92196  -0.73873  -0.68070
 Alpha  occ. eigenvalues --   -0.58823  -0.55271  -0.53224  -0.40444  -0.36897
 Alpha  occ. eigenvalues --   -0.33713  -0.31861  -0.25465
 Alpha virt. eigenvalues --   -0.06841   0.00899   0.00902   0.02984   0.04449
 Alpha virt. eigenvalues --    0.05981   0.06338   0.07729   0.08466   0.11854
 Alpha virt. eigenvalues --    0.12966   0.14125   0.15725   0.16818   0.17788

 Mulliken charges:
               1
     1  N   -0.047967
     2  N    0.009830
     3  N   -0.206402
     4  N   -0.164552
     5  C   -0.324612
     6  H    0.376000
     7  H    0.357704
 Sum of Mulliken charges =  -0.00000

 Dipole moment (field-independent basis, Debye):
    X=              4.7004    Y=              2.9728    Z=             -0.0039  Tot=              5.5616
 Quadrupole moment (field-independent basis, Debye-Ang):
   XX=            -34.6193   YY=            -23.4509   ZZ=            -29.4413
   XY=             -6.5452   XZ=              0.0049   YZ=             -0.0095

  Exact polarizability:      62.037       3.068      62.365      -0.005      -0.036      34.119
 Approx polarizability:      83.182       0.353      76.638      -0.002      -0.047      39.503

 Summary of Natural Population Analysis:

                                       Natural Population
                Natural  -----------------------------------------------
    Atom  No    Charge         Core      Valence    Rydberg      Total
 -----------------------------------------------------------------------
      N    1   -0.11017      1.99949     5.07765    0.03304     7.11017
      N    2   -0.02480      1.99956     4.99474    0.03050     7.02480
      N    3   -0.37030      1.99956     5.33898    0.03176     7.37030
      N    4   -0.36911      1.99946     5.34092    0.02872     7.36911
      C    5   -0.01353      1.99960     3.95655    0.05737     6.01353
      H    6    0.44678      0.00000     0.55139    0.00183     0.55322
      H    7    0.44112      0.00000     0.55701    0.00186     0.55888
 =======================================================================
   * Total *   -0.00000      9.99767    25.81725    0.18508    36.00000

                      1                      2                      3
                      A                      A                      A
 Frequencies --    669.9521               700.4759               736.0611
 Red. masses --      9.5056                12.0139                 1.2185
 Frc consts  --      2.5137                 3.4731                 0.3889
 IR Inten    --      0.7857                 2.1154                 2.7212
 Raman Activ --      0.3174                 0.0200                 0.0401

                      4                      5                      6
                      A                      A                      A
 Frequencies --    774.6321               958.8208              1002.6630
 Red. masses --      1.0731                 7.0314                10.0507
 Frc consts  --      0.3794                 3.8086                 5.9533
 IR Inten    --    239.8002                67.8718                10.4902
 Raman Activ --      0.5881                12.5305                 1.5461

                      7                      8                      9
                      A                      A                      A
 Frequencies --   1055.3638              1068.8549              1177.5476
 Red. masses --      4.8111                 3.9509                 8.7760
 Frc consts  --      3.1572                 2.6594                 7.1698
 IR Inten    --     80.3734                11.8537                10.7529
 Raman Activ --     10.2414                 8.2015                46.6167

                     10                     11                     12
                      A                      A                      A
 Frequencies --   1251.0857              1307.2424              1416.9807
 Red. masses --      3.8626                 5.3939                 1.3200
 Frc consts  --      3.5621                 5.4309                 1.5616
 IR Inten    --      7.5185                36.4846                20.2421
 Raman Activ --      8.1756                24.6456                 7.4355

                     13                     14                     15
                      A                      A                      A
 Frequencies --   1531.3099              3593.5551              3628.9870
 Red. masses --      2.0443                 1.0840                 1.0860
 Frc consts  --      2.8244                 8.2474                 8.4263
 IR Inten    --      6.6614               269.2566               115.6098
 Raman Activ --     18.3891               174.5865               187.3741

 - Thermochemistry -
 -------------------
 Temperature   298.150 Kelvin.  Pressure   1.00000 Atm.
 Thermochemistry will use frequencies scaled by 0.9670.

 Molecular mass:    70.02795 amu.
 Principal axes and moments of inertia in atomic units:
                           1         2         3
     Eigenvalues --   169.71475 175.04090 344.75565
           X            0.94358   0.33114   0.00003
           Y           -0.33114   0.94358   0.00126
           Z            0.00039  -0.00120   1.00000
 This molecule is an asymmetric top.
 Rotational symmetry number  1.
 Rotational temperatures (Kelvin)      0.51035     0.49482     0.25123
 Rotational constants (GHZ):          10.63397    10.31040     5.23484
 Zero-point vibrational energy     120731.3 (Joules/Mol)
                                   28.85549 (Kcal/Mol)
 Vibrational temperatures:    932.10   974.57  1024.08  1077.74  1334.00
          (Kelvin)           1395.00  1468.32  1487.09  1638.32  1740.63
                             1818.76  1971.44  2130.51  4999.70  5049.00

 Zero-point correction=                           0.045984 (Hartree/Particle)
 Thermal correction to Energy=                    0.049497
 Thermal correction to Enthalpy=                  0.050442
 Thermal correction to Gibbs Free Energy=         0.019887
 Sum of electronic and zero-point Energies=           -258.242782
 Sum of electronic and thermal Energies=              -258.239269
 Sum of electronic and thermal Enthalpies=            -258.238325
 Sum of electronic and thermal Free Energies=         -258.268880

                     E (Thermal)             CV                S
                      KCal/Mol        Cal/Mol-Kelvin    Cal/Mol-Kelvin
 Total                   31.060             11.696             64.308
 Electronic               0.000              0.000              0.000
 Translational            0.889              2.981             38.656
 Rotational               0.889              2.981             23.842
 Vibrational             29.283              5.734              1.810

 Optimization completed.
    -- Stationary point found.
 Normal termination of Gaussian 16 at Fri Jun  2 11:10:06 2023.
