 Gaussian 16, Revision C.01,
 Gaussian 16:  ES64L-G16RevC.01  3-Jul-2019

 ----------------------------------------------------------------------
 #p freq=raman scale=0.967 pop=(nbo,full,hirshfeld) guess=read geom=all
 check b3lyp/6-311+G(d,p) int=grid=ultrafine EmpiricalDispersion=GD3BJ
 SCRF=(Solvent=ethanol) scf=(xqc,intrep,maxconventionalcycle=350) nosym
 m
 ----------------------------------------------------------------------

 Structure from the checkpoint file:  "/scratch1/svicchi/G09-659724.pbs02/02-freq/3ethyl45dimethylthiazolium-isolated-freq.chk"
 ---------------------------------------
 3ethyl45dimethylthiazolium-isolated.gjf
 ---------------------------------------
 Charge =  1 Multiplicity = 1

                          Input orientation:
 ---------------------------------------------------------------------
 Center     Atomic      Atomic             Coordinates (Angstroms)
 Number     Number       Type             X           Y           Z
 ---------------------------------------------------------------------
      1          7           0       -0.087543    0.065877   -0.000416
      2          6           0        1.232972    0.007869    0.034863
      3          6           0       -0.632092    0.073814   -1.288339
      4          6           0        0.337232    0.016411   -2.246938
      5         16           0        1.917466   -0.043698   -1.509280
      6          6           0       -0.903881    0.046977    1.239636
      7          6           0       -1.287839   -1.373409    1.635917
      8          1           0       -1.884414   -1.335217    2.548928
      9          1           0       -1.880299   -1.862316    0.861337
     10          1           0       -0.398457   -1.975990    1.828685
     11          1           0       -1.777986    0.668787    1.058200
     12          1           0       -0.307387    0.528572    2.012318
     13          1           0        1.799385   -0.014192    0.952281
     14          6           0        0.188907    0.037366   -3.733851
     15          1           0        0.993368   -0.518015   -4.217100
     16          1           0        0.210248    1.063100   -4.111147
     17          6           0       -2.105557    0.175102   -1.494246
     18          1           0       -2.334693    0.118961   -2.556088
     19          1           0       -2.487414    1.128344   -1.119928
     20          1           0       -2.640092   -0.630955   -0.988652
     21          1           0       -0.757507   -0.416040   -4.028350
 ---------------------------------------------------------------------

 SCF Done:  E(RB3LYP) =  -726.910184758     A.U. after    1 cycles

 Alpha  occ. eigenvalues --  -88.93837 -14.44493 -10.29781 -10.26605 -10.25547
 Alpha  occ. eigenvalues --  -10.24921 -10.20128 -10.19989 -10.18742  -8.02437
 Alpha  occ. eigenvalues --   -5.98703  -5.98304  -5.98088  -1.06562  -0.89419
 Alpha  occ. eigenvalues --   -0.84244  -0.79914  -0.75756  -0.72365  -0.68700
 Alpha  occ. eigenvalues --   -0.63969  -0.59808  -0.55869  -0.51363  -0.50115
 Alpha  occ. eigenvalues --   -0.48349  -0.46369  -0.45173  -0.44262  -0.44020
 Alpha  occ. eigenvalues --   -0.43266  -0.41901  -0.41033  -0.40080  -0.39403
 Alpha  occ. eigenvalues --   -0.38401  -0.33221  -0.28776
 Alpha virt. eigenvalues --   -0.08922  -0.02585  -0.02162  -0.00830   0.00761
 Alpha virt. eigenvalues --    0.01164   0.01880   0.03205   0.03544   0.03900
 Alpha virt. eigenvalues --    0.04492   0.05465   0.05815   0.06502   0.06731

 Mulliken charges:
               1
     1  N    0.358952
     2  C   -0.008099
     3  C   -0.848113
     4  C    1.166951
     5  S   -0.021799
     6  C   -0.240501
     7  C   -0.376674
     8  H    0.175253
     9  H    0.153788
    10  H    0.163241
    11  H    0.196950
    12  H    0.195353
    13  H    0.231903
    14  C   -0.348249
    15  H    0.172076
    16  H    0.201291
    17  C   -0.898144
    18  H    0.174675
    19  H    0.199753
    20  H    0.177644
    21  H    0.173749
 Sum of Mulliken charges =   1.00000

 Dipole moment (field-independent basis, Debye):
    X=             -0.1704    Y=             -0.0327    Z=             -2.5867  Tot=              2.5925
 Quadrupole moment (field-independent basis, Debye-Ang):
   XX=            -47.2914   YY=            -60.2853   ZZ=            -38.5451
   XY=             -0.2102   XZ=             -0.5475   YZ=             -0.8878

  Exact polarizability:     147.673      -0.331      92.031      -8.377      -3.591     150.913
 Approx polarizability:     175.877      -2.189     106.542      -7.762      -0.646     175.701

 Summary of Natural Population Analysis:

                                       Natural Population
                Natural  -----------------------------------------------
    Atom  No    Charge         Core      Valence    Rydberg      Total
 -----------------------------------------------------------------------
      N    1   -0.33904      1.99917     5.32063    0.01924     7.33904
      C    2   -0.06131      1.99927     4.03756    0.02447     6.06131
      C    3    0.17816      1.99884     3.80479    0.01821     5.82184
      C    4   -0.17248      1.99888     4.15387    0.01973     6.17248
      S    5    0.58141      9.99881     5.37959    0.04019    15.41859
      C    6   -0.17353      1.99928     4.15782    0.01644     6.17353
      C    7   -0.58794      1.99935     4.58056    0.00803     6.58794
      H    8    0.22729      0.00000     0.77163    0.00108     0.77271
      H    9    0.21118      0.00000     0.78734    0.00149     0.78882
      H   10    0.21457      0.00000     0.78398    0.00144     0.78543
      H   11    0.22767      0.00000     0.77065    0.00168     0.77233
      H   12    0.22818      0.00000     0.77033    0.00148     0.77182
      H   13    0.26756      0.00000     0.73098    0.00146     0.73244
      C   14   -0.61046      1.99925     4.59844    0.01276     6.61046
      H   15    0.23499      0.00000     0.76389    0.00112     0.76501
      H   16    0.23884      0.00000     0.76006    0.00110     0.76116
      C   17   -0.61539      1.99927     4.60693    0.00920     6.61539
      H   18    0.24083      0.00000     0.75803    0.00114     0.75917
      H   19    0.23860      0.00000     0.75998    0.00142     0.76140
      H   20    0.23476      0.00000     0.76368    0.00156     0.76524
      H   21    0.23610      0.00000     0.76274    0.00116     0.76390
 =======================================================================
   * Total *    1.00000     25.99211    49.82349    0.18440    76.00000

                      1                      2                      3
                      A                      A                      A
 Frequencies --     75.6621                85.5884                99.6834
 Red. masses --      1.9636                 1.2361                 2.6525
 Frc consts  --      0.0066                 0.0053                 0.0155
 IR Inten    --      0.1942                 0.5934                 0.1591
 Raman Activ --      1.0796                 2.9407                 1.7749

                      4                      5                      6
                      A                      A                      A
 Frequencies --    150.4395               191.6443               204.2780
 Red. masses --      1.0590                 3.3669                 1.1054
 Frc consts  --      0.0141                 0.0729                 0.0272
 IR Inten    --      0.4345                 0.1097                 0.1089
 Raman Activ --      0.2412                 1.2337                 0.0605

                      7                      8                      9
                      A                      A                      A
 Frequencies --    268.8849               292.3682               323.7451
 Red. masses --      3.1774                 2.4242                 2.3378
 Frc consts  --      0.1353                 0.1221                 0.1444
 IR Inten    --     10.5407                 0.3606                 0.7737
 Raman Activ --      3.9684                 1.2265                 0.1428

                     10                     11                     12
                      A                      A                      A
 Frequencies --    366.8004               424.4343               518.2285
 Red. masses --      3.8489                 3.2234                 4.4285
 Frc consts  --      0.3051                 0.3421                 0.7007
 IR Inten    --      2.1936                 0.8996                 1.9908
 Raman Activ --      3.6663                 0.3870                 4.5043

                     13                     14                     15
                      A                      A                      A
 Frequencies --    530.5244               574.6243               640.8952
 Red. masses --      5.6197                 4.4934                 3.9015
 Frc consts  --      0.9319                 0.8742                 0.9442
 IR Inten    --      0.6722                 6.8336                 2.6740
 Raman Activ --     10.8322                20.6069                24.6592

                     16                     17                     18
                      A                      A                      A
 Frequencies --    664.1510               793.8560               803.3375
 Red. masses --      3.8033                 1.2985                 1.5293
 Frc consts  --      0.9884                 0.4821                 0.5815
 IR Inten    --      7.4719                27.9732                 8.0997
 Raman Activ --      1.1224                 1.2948                 1.9216

                     19                     20                     21
                      A                      A                      A
 Frequencies --    817.3699               910.6811               959.3742
 Red. masses --      1.8247                 3.2405                 2.2577
 Frc consts  --      0.7182                 1.5834                 1.2243
 IR Inten    --      1.2132                15.7574                12.1670
 Raman Activ --      4.0357                20.5651                14.5063

                     22                     23                     24
                      A                      A                      A
 Frequencies --    982.4568              1046.1740              1067.2441
 Red. masses --      1.8143                 1.3788                 1.5224
 Frc consts  --      1.0318                 0.8891                 1.0217
 IR Inten    --     12.3961                 5.3569                 2.5689
 Raman Activ --      6.0308                 1.8175                 1.4474

                     25                     26                     27
                      A                      A                      A
 Frequencies --   1076.9969              1112.6293              1126.7150
 Red. masses --      2.4232                 1.8898                 2.0578
 Frc consts  --      1.6560                 1.3784                 1.5391
 IR Inten    --      3.4035                13.3965                27.9222
 Raman Activ --      8.6313                 5.4652                 5.5576

                     28                     29                     30
                      A                      A                      A
 Frequencies --   1144.3502              1201.0807              1263.2993
 Red. masses --      1.7147                 2.5825                 1.6478
 Frc consts  --      1.3230                 2.1950                 1.5494
 IR Inten    --      2.6658                24.2327                 7.0189
 Raman Activ --      7.8071                22.9949                19.3284

                     31                     32                     33
                      A                      A                      A
 Frequencies --   1298.7947              1371.4583              1413.2183
 Red. masses --      2.0110                 1.3699                 1.4880
 Frc consts  --      1.9987                 1.5182                 1.7509
 IR Inten    --      4.2831                37.7646                 2.1561
 Raman Activ --      4.3403                 9.2398                21.5741

                     34                     35                     36
                      A                      A                      A
 Frequencies --   1415.0543              1419.4904              1427.8366
 Red. masses --      1.2454                 1.3572                 1.3744
 Frc consts  --      1.4693                 1.6112                 1.6508
 IR Inten    --      6.5873                 0.8951                 5.1744
 Raman Activ --      7.5821                52.7994                18.5176

                     37                     38                     39
                      A                      A                      A
 Frequencies --   1466.3086              1472.5361              1476.8541
 Red. masses --      1.2224                 1.0647                 1.0417
 Frc consts  --      1.5485                 1.3603                 1.3386
 IR Inten    --     17.7030                31.7904                12.1129
 Raman Activ --     32.7289                18.1028                12.4287

                     40                     41                     42
                      A                      A                      A
 Frequencies --   1481.4544              1485.6126              1491.1379
 Red. masses --      1.1027                 1.0526                 1.0644
 Frc consts  --      1.4259                 1.3687                 1.3944
 IR Inten    --     17.4904                 9.3784                20.4958
 Raman Activ --     23.7177                15.0066                26.3704

                     43                     44                     45
                      A                      A                      A
 Frequencies --   1496.8089              1523.8382              1633.1894
 Red. masses --      1.7433                 1.3811                 6.6703
 Frc consts  --      2.3012                 1.8896                10.4826
 IR Inten    --     55.6806                36.4660                52.2007
 Raman Activ --     53.4386                34.5550                51.9208

                     46                     47                     48
                      A                      A                      A
 Frequencies --   3045.5288              3047.0912              3048.5480
 Red. masses --      1.0388                 1.0365                 1.0390
 Frc consts  --      5.6767                 5.6699                 5.6890
 IR Inten    --     11.0896                 9.8416                13.2448
 Raman Activ --    382.6016                20.4202               810.5516

                     49                     50                     51
                      A                      A                      A
 Frequencies --   3101.6508              3105.5942              3108.3111
 Red. masses --      1.0643                 1.0984                 1.0979
 Frc consts  --      6.0323                 6.2416                 6.2496
 IR Inten    --      8.3934                 5.7528                 6.2371
 Raman Activ --    212.5572               147.9221               168.2686

                     52                     53                     54
                      A                      A                      A
 Frequencies --   3116.3384              3123.1703              3131.0739
 Red. masses --      1.1038                 1.0992                 1.1027
 Frc consts  --      6.3158                 6.3170                 6.3694
 IR Inten    --     16.1142                26.5650                 6.7965
 Raman Activ --    146.7540               190.0467               111.5343

                     55                     56                     57
                      A                      A                      A
 Frequencies --   3149.7243              3154.9910              3264.1201
 Red. masses --      1.0988                 1.1076                 1.0971
 Frc consts  --      6.4228                 6.4958                 6.8867
 IR Inten    --      8.7264                 7.5969                44.4197
 Raman Activ --     97.7296                79.1021               151.9636

 - Thermochemistry -
 -------------------
 Temperature   298.150 Kelvin.  Pressure   1.00000 Atm.
 Thermochemistry will use frequencies scaled by 0.9670.

 Molecular mass:   142.06905 amu.
 Principal axes and moments of inertia in atomic units:
                           1         2         3
     Eigenvalues --   834.372671602.429782249.51348
           X           -0.48928   0.87189  -0.02024
           Y           -0.14115  -0.05626   0.98839
           Z            0.86063   0.48646   0.15060
 This molecule is an asymmetric top.
 Rotational symmetry number  1.
 Warning -- assumption of classical behavior for rotation
           may cause significant error
 Rotational temperatures (Kelvin)      0.10381     0.05405     0.03850
 Rotational constants (GHZ):           2.16299     1.12625     0.80228
 Zero-point vibrational energy     456857.9 (Joules/Mol)
                                  109.19165 (Kcal/Mol)
 Warning -- explicit consideration of  15 degrees of freedom as
           vibrations may cause significant error
 Vibrational temperatures:    105.27   119.08   138.69   209.31   266.63
          (Kelvin)            284.21   374.10   406.77   450.43   510.33
                              590.51   721.01   738.12   799.47   891.68
                              924.03  1104.49  1117.68  1137.20  1267.03
                             1334.77  1366.89  1455.54  1484.85  1498.42
                             1548.00  1567.60  1592.13  1671.06  1757.62
                             1807.01  1908.11  1966.21  1968.76  1974.93
                             1986.55  2040.07  2048.74  2054.74  2061.14
                             2066.93  2074.62  2082.51  2120.11  2272.25
                             4237.24  4239.41  4241.44  4315.32  4320.80
                             4324.58  4335.75  4345.26  4356.25  4382.20
                             4389.53  4541.36

 Zero-point correction=                           0.174008 (Hartree/Particle)
 Thermal correction to Energy=                    0.184553
 Thermal correction to Enthalpy=                  0.185497
 Thermal correction to Gibbs Free Energy=         0.138028
 Sum of electronic and zero-point Energies=           -726.736177
 Sum of electronic and thermal Energies=              -726.725632
 Sum of electronic and thermal Enthalpies=            -726.724688
 Sum of electronic and thermal Free Energies=         -726.772157

                     E (Thermal)             CV                S
                      KCal/Mol        Cal/Mol-Kelvin    Cal/Mol-Kelvin
 Total                  115.809             38.488             99.907
 Electronic               0.000              0.000              0.000
 Translational            0.889              2.981             40.765
 Rotational               0.889              2.981             29.488
 Vibrational            114.031             32.526             29.655
 Vibration     1          0.599              1.967              4.066
 Vibration     2          0.600              1.961              3.824
 Vibration     3          0.603              1.952              3.526
 Vibration     4          0.617              1.908              2.731
 Vibration     5          0.631              1.860              2.274
 Vibration     6          0.637              1.843              2.156
 Vibration     7          0.668              1.746              1.662
 Vibration     8          0.682              1.706              1.517
 Vibration     9          0.701              1.649              1.346
 Vibration    10          0.731              1.566              1.145
 Vibration    11          0.775              1.448              0.925
 Vibration    12          0.857              1.248              0.655
 Vibration    13          0.868              1.221              0.626
 Vibration    14          0.911              1.127              0.533
 Vibration    15          0.980              0.990              0.417

 Normal termination of Gaussian 16 at Fri Jun  2 12:11:52 2023.
