 Gaussian 16, Revision C.01,
 Gaussian 16:  ES64L-G16RevC.01  3-Jul-2019

 ----------------------------------------------------------------------
 #p freq=raman scale=0.967 pop=(nbo,full,hirshfeld) guess=read geom=all
 check b3lyp/6-311+G(d,p) int=grid=ultrafine EmpiricalDispersion=GD3BJ
 SCRF=(Solvent=ethanol) scf=(xqc,intrep,maxconventionalcycle=350) nosym
 m
 ----------------------------------------------------------------------

 Structure from the checkpoint file:  "/scratch1/svicchi/G09-709948.pbs02/02-freq/MEA-CO2_binding_direct-site_index-0-freq.chk"
 ---------------------------------------
 MEA-CO2_binding_direct-site_index-0.gjf
 ---------------------------------------
 Charge =  0 Multiplicity = 1

                          Input orientation:
 ---------------------------------------------------------------------
 Center     Atomic      Atomic             Coordinates (Angstroms)
 Number     Number       Type             X           Y           Z
 ---------------------------------------------------------------------
      1          8           0        2.161894   -0.692102   -0.563269
      2          6           0        3.131199    0.226731   -0.041378
      3          6           0        4.513005   -0.277729   -0.426673
      4          1           0        3.052770    0.290971    1.049306
      5          1           0        2.969190    1.228002   -0.458679
      6          7           0        5.537536    0.646139    0.078308
      7          1           0        4.545623   -0.417760   -1.516169
      8          1           0        4.672745   -1.255106    0.034545
      9          1           0        5.543719    1.500566   -0.471315
     10          1           0        6.459198    0.234553   -0.023138
     11          1           0        1.285148   -0.310056   -0.452903
     12          6           0        2.053691   -3.044571    0.963218
     13          8           0        1.203080   -3.469971    0.297644
     14          8           0        2.901764   -2.660104    1.656595
 ---------------------------------------------------------------------

 SCF Done:  E(RB3LYP) =  -399.132977377     A.U. after    2 cycles

 Alpha  occ. eigenvalues --  -19.20251 -19.20249 -19.13322 -14.30049 -10.36041
 Alpha  occ. eigenvalues --  -10.21723 -10.19419  -1.16404  -1.12536  -1.03140
 Alpha  occ. eigenvalues --   -0.88820  -0.72874  -0.60796  -0.56670  -0.52932
 Alpha  occ. eigenvalues --   -0.52549  -0.51869  -0.51709  -0.50043  -0.46524
 Alpha  occ. eigenvalues --   -0.42786  -0.40622  -0.37919  -0.37460  -0.37157
 Alpha  occ. eigenvalues --   -0.34302  -0.28974  -0.25486
 Alpha virt. eigenvalues --   -0.00926   0.00549   0.01768   0.02817   0.03138
 Alpha virt. eigenvalues --    0.03350   0.05053   0.05599   0.06486   0.07143
 Alpha virt. eigenvalues --    0.07969   0.09424   0.10455   0.11678   0.12543

 Mulliken charges:
               1
     1  O   -0.399259
     2  C   -0.184711
     3  C   -0.260480
     4  H    0.153524
     5  H    0.141974
     6  N   -0.515707
     7  H    0.140861
     8  H    0.148901
     9  H    0.239634
    10  H    0.247921
    11  H    0.284321
    12  C    0.490522
    13  O   -0.255212
    14  O   -0.232288
 Sum of Mulliken charges =   0.00000

 Dipole moment (field-independent basis, Debye):
    X=              0.1335    Y=              1.7727    Z=             -0.9797  Tot=              2.0298
 Quadrupole moment (field-independent basis, Debye-Ang):
   XX=            -36.0820   YY=            -43.9749   ZZ=            -45.5783
   XY=              1.5851   XZ=             -9.4507   YZ=             -3.8690

  Exact polarizability:      73.566       8.065      63.746       9.204       5.612      65.498
 Approx polarizability:      82.850      10.146      68.895      15.979       8.197      74.133

 Summary of Natural Population Analysis:

                                       Natural Population
                Natural  -----------------------------------------------
    Atom  No    Charge         Core      Valence    Rydberg      Total
 -----------------------------------------------------------------------
      O    1   -0.77130      1.99979     6.75640    0.01512     8.77130
      C    2   -0.03268      1.99922     4.01190    0.02155     6.03268
      C    3   -0.20579      1.99932     4.18679    0.01968     6.20579
      H    4    0.16532      0.00000     0.83203    0.00264     0.83468
      H    5    0.16278      0.00000     0.83517    0.00205     0.83722
      N    6   -0.87210      1.99953     5.85112    0.02145     7.87210
      H    7    0.16808      0.00000     0.82924    0.00268     0.83192
      H    8    0.19223      0.00000     0.80553    0.00224     0.80777
      H    9    0.35820      0.00000     0.63908    0.00272     0.64180
      H   10    0.36551      0.00000     0.63225    0.00225     0.63449
      H   11    0.47809      0.00000     0.51772    0.00418     0.52191
      C   12    1.02244      1.99973     2.92694    0.05089     4.97756
      O   13   -0.51480      1.99971     6.50195    0.01315     8.51480
      O   14   -0.51599      1.99971     6.50257    0.01371     8.51599
 =======================================================================
   * Total *    0.00000     13.99701    41.82867    0.17432    56.00000

                      1                      2                      3
                      A                      A                      A
 Frequencies --     15.4024                42.3089                58.9327
 Red. masses --      8.6875                 3.0876                 2.7134
 Frc consts  --      0.0012                 0.0033                 0.0056
 IR Inten    --      0.1224                 2.6688                 2.8197
 Raman Activ --      2.5168                 0.1816                 0.4872

                      4                      5                      6
                      A                      A                      A
 Frequencies --     93.1426               112.7461               148.0591
 Red. masses --      7.1901                 7.3673                 3.7985
 Frc consts  --      0.0368                 0.0552                 0.0491
 IR Inten    --      1.9657                 2.2253                35.4606
 Raman Activ --      0.4113                 4.2219                 0.4082

                      7                      8                      9
                      A                      A                      A
 Frequencies --    231.2790               275.7290               297.3891
 Red. masses --      1.0927                 1.0759                 2.7969
 Frc consts  --      0.0344                 0.0482                 0.1457
 IR Inten    --     62.7712               174.4162                31.8572
 Raman Activ --      0.2228                 2.4896                 0.3068

                     10                     11                     12
                      A                      A                      A
 Frequencies --    477.1021               636.6685               664.5016
 Red. masses --      5.3609                12.8935                12.7877
 Frc consts  --      0.7190                 3.0793                 3.3269
 IR Inten    --      2.5172                79.5152                44.9807
 Raman Activ --      3.4402                 4.7002                 0.0652

                     13                     14                     15
                      A                      A                      A
 Frequencies --    810.0381               868.2278               961.5786
 Red. masses --      1.1025                 1.2613                 1.9507
 Frc consts  --      0.4262                 0.5602                 1.0627
 IR Inten    --     29.9223               181.0905                17.5412
 Raman Activ --      0.7221                 8.2001                10.8318

                     16                     17                     18
                      A                      A                      A
 Frequencies --   1036.5728              1074.5694              1104.6517
 Red. masses --      6.6586                 2.7668                 1.4401
 Frc consts  --      4.2153                 1.8823                 1.0354
 IR Inten    --    171.4172                 0.3904                14.9913
 Raman Activ --      2.6113                15.5521                 1.3880

                     19                     20                     21
                      A                      A                      A
 Frequencies --   1185.1781              1244.4997              1300.5825
 Red. masses --      1.2929                 1.1688                 1.2824
 Frc consts  --      1.0700                 1.0665                 1.2780
 IR Inten    --     12.3866                41.6338                 8.2936
 Raman Activ --      2.6498                 2.8325                 6.5955

                     22                     23                     24
                      A                      A                      A
 Frequencies --   1323.6704              1371.8678              1396.3283
 Red. masses --      1.1051                15.8772                 1.3213
 Frc consts  --      1.1408                17.6055                 1.5178
 IR Inten    --      2.4251                 0.8065                 2.2834
 Raman Activ --     23.8741                38.8427                 0.6393

                     25                     26                     27
                      A                      A                      A
 Frequencies --   1456.1865              1502.7201              1519.8437
 Red. masses --      1.5244                 1.0795                 1.0870
 Frc consts  --      1.9044                 1.4362                 1.4794
 IR Inten    --      1.3262                 0.2755                 6.5733
 Raman Activ --      3.8934                29.3052                 0.2694

                     28                     29                     30
                      A                      A                      A
 Frequencies --   1652.1612              2384.7481              2977.9638
 Red. masses --      1.0878                12.8639                 1.0714
 Frc consts  --      1.7494                43.1031                 5.5982
 IR Inten    --     49.1634              1086.3918                94.0044
 Raman Activ --      5.1391                 0.3752               316.9081

                     31                     32                     33
                      A                      A                      A
 Frequencies --   3001.4836              3041.0235              3079.0918
 Red. masses --      1.0570                 1.1029                 1.0944
 Frc consts  --      5.6106                 6.0095                 6.1131
 IR Inten    --     79.6148                60.6619                60.0855
 Raman Activ --    256.6545               175.0098                99.6446

                     34                     35                     36
                      A                      A                      A
 Frequencies --   3500.0825              3574.2980              3836.6760
 Red. masses --      1.0511                 1.0921                 1.0668
 Frc consts  --      7.5866                 8.2206                 9.2526
 IR Inten    --      0.4578                 6.1876                73.7086
 Raman Activ --    205.1084               108.8236               143.9731

 - Thermochemistry -
 -------------------
 Temperature   298.150 Kelvin.  Pressure   1.00000 Atm.
 Thermochemistry will use frequencies scaled by 0.9670.

 Molecular mass:   105.04259 amu.
 Principal axes and moments of inertia in atomic units:
                           1         2         3
     Eigenvalues --   376.883971620.324751862.88685
           X            0.63568   0.67413  -0.37611
           Y            0.74607  -0.41140   0.52357
           Z           -0.19822   0.61343   0.76447
 This molecule is an asymmetric top.
 Rotational symmetry number  1.
 Rotational temperatures (Kelvin)      0.22982     0.05345     0.04649
 Rotational constants (GHZ):           4.78859     1.11381     0.96879
 Zero-point vibrational energy     279117.6 (Joules/Mol)
                                   66.71070 (Kcal/Mol)
 Warning -- explicit consideration of  11 degrees of freedom as
           vibrations may cause significant error
 Vibrational temperatures:     21.43    58.86    81.99   129.59   156.86
          (Kelvin)            205.99   321.78   383.62   413.76   663.79
                              885.80   924.52  1127.00  1207.96  1337.84
                             1442.18  1495.05  1536.90  1648.94  1731.47
                             1809.50  1841.62  1908.68  1942.71  2025.99
                             2090.73  2114.55  2298.65  3317.89  4143.23
                             4175.96  4230.97  4283.93  4869.66  4972.91
                             5337.96

 Zero-point correction=                           0.106310 (Hartree/Particle)
 Thermal correction to Energy=                    0.116222
 Thermal correction to Enthalpy=                  0.117166
 Thermal correction to Gibbs Free Energy=         0.068366
 Sum of electronic and zero-point Energies=           -399.026667
 Sum of electronic and thermal Energies=              -399.016755
 Sum of electronic and thermal Enthalpies=            -399.015811
 Sum of electronic and thermal Free Energies=         -399.064611

                     E (Thermal)             CV                S
                      KCal/Mol        Cal/Mol-Kelvin    Cal/Mol-Kelvin
 Total                   72.930             30.338            102.709
 Electronic               0.000              0.000              0.000
 Translational            0.889              2.981             39.865
 Rotational               0.889              2.981             28.522
 Vibrational             71.153             24.377             34.322
 Vibration     1          0.593              1.986              7.220
 Vibration     2          0.594              1.981              5.214
 Vibration     3          0.596              1.975              4.559
 Vibration     4          0.602              1.956              3.659
 Vibration     5          0.606              1.942              3.286
 Vibration     6          0.616              1.910              2.761
 Vibration     7          0.649              1.805              1.929
 Vibration     8          0.672              1.734              1.618
 Vibration     9          0.685              1.697              1.488
 Vibration    10          0.819              1.336              0.762
 Vibration    11          0.975              0.999              0.423

 Optimization completed.
    -- Stationary point found.
 Normal termination of Gaussian 16 at Mon Jun 12 10:41:09 2023.
