 Gaussian 16, Revision C.01,
 Gaussian 16:  ES64L-G16RevC.01  3-Jul-2019

 ----------------------------------------------------------------------
 #p freq=raman scale=0.967 pop=(nbo,full,hirshfeld) guess=read geom=all
 check b3lyp/6-311+G(d,p) int=grid=ultrafine EmpiricalDispersion=GD3BJ
 SCRF=(Solvent=ethanol) scf=(xqc,intrep,maxconventionalcycle=350) nosym
 m
 ----------------------------------------------------------------------

 Structure from the checkpoint file:  "/scratch1/svicchi/G09-659887.pbs02/02-freq/EDA-H_dissociation-site_index-0-freq.chk"
 -----------------------------------
 EDA-H_dissociation-site_index-0.gjf
 -----------------------------------
 Charge = -1 Multiplicity = 1

                          Input orientation:
 ---------------------------------------------------------------------
 Center     Atomic      Atomic             Coordinates (Angstroms)
 Number     Number       Type             X           Y           Z
 ---------------------------------------------------------------------
      1          7           0        2.056917   -0.835105    0.111691
      2          6           0        3.096240    0.173612    0.051271
      3          6           0        4.541453   -0.356170   -0.049954
      4          1           0        3.051580    0.796951    0.958850
      5          1           0        2.990570    0.898673   -0.793969
      6          7           0        5.532068    0.740344   -0.108774
      7          1           0        4.599217   -1.025187   -0.924413
      8          1           0        4.758469   -0.966058    0.833579
      9          1           0        5.361622    1.304609   -0.937813
     10          1           0        6.471647    0.366846   -0.211477
     11          1           0        2.064036   -1.318770   -0.791053
 ---------------------------------------------------------------------

 SCF Done:  E(RB3LYP) =  -190.056824856     A.U. after    1 cycles

 Alpha  occ. eigenvalues --  -14.28301 -14.18879 -10.16252 -10.14704  -0.86608
 Alpha  occ. eigenvalues --   -0.77227  -0.64648  -0.55403  -0.47114  -0.43178
 Alpha  occ. eigenvalues --   -0.40807  -0.36255  -0.33010  -0.31536  -0.23659
 Alpha  occ. eigenvalues --   -0.20076  -0.13413
 Alpha virt. eigenvalues --    0.01322   0.02535   0.03736   0.04826   0.07499
 Alpha virt. eigenvalues --    0.08390   0.08693   0.10501   0.12233   0.12850
 Alpha virt. eigenvalues --    0.13495   0.16393   0.16921   0.19703   0.20073

 Mulliken charges:
               1
     1  N   -1.045616
     2  C   -0.087080
     3  C   -0.311472
     4  H    0.092904
     5  H    0.048959
     6  N   -0.529378
     7  H    0.108587
     8  H    0.125530
     9  H    0.220669
    10  H    0.234209
    11  H    0.142689
 Sum of Mulliken charges =  -1.00000

 Dipole moment (field-independent basis, Debye):
    X=             -9.5961    Y=              2.8571    Z=             -3.4439  Tot=             10.5882
 Quadrupole moment (field-independent basis, Debye-Ang):
   XX=            -52.2538   YY=            -37.4451   ZZ=            -30.7937
   XY=              1.9731   XZ=            -11.9461   YZ=              0.8297

  Exact polarizability:      86.713      -1.368      85.961       0.485      -5.810      68.351
 Approx polarizability:      77.928      -0.575      80.981       0.651      -3.589      69.278

 Summary of Natural Population Analysis:

                                       Natural Population
                Natural  -----------------------------------------------
    Atom  No    Charge         Core      Valence    Rydberg      Total
 -----------------------------------------------------------------------
      N    1   -1.24755      1.99964     6.20968    0.03822     8.24755
      C    2   -0.19815      1.99936     4.17144    0.02735     6.19815
      C    3   -0.20318      1.99930     4.17727    0.02662     6.20318
      H    4    0.14196      0.00000     0.85362    0.00442     0.85804
      H    5    0.10208      0.00000     0.89282    0.00510     0.89792
      N    6   -0.88705      1.99954     5.86381    0.02370     7.88705
      H    7    0.14185      0.00000     0.85364    0.00450     0.85815
      H    8    0.16395      0.00000     0.83092    0.00513     0.83605
      H    9    0.34938      0.00000     0.64744    0.00319     0.65062
      H   10    0.35441      0.00000     0.64275    0.00284     0.64559
      H   11    0.28228      0.00000     0.71296    0.00475     0.71772
 =======================================================================
   * Total *   -1.00000      7.99784    25.85634    0.14582    34.00000

                      1                      2                      3
                      A                      A                      A
 Frequencies --    156.2654               222.3317               286.5502
 Red. masses --      2.4759                 1.1425                 1.6986
 Frc consts  --      0.0356                 0.0333                 0.0822
 IR Inten    --     26.2161                33.3583                 4.0085
 Raman Activ --      3.0513                 5.0616                44.4540

                      4                      5                      6
                      A                      A                      A
 Frequencies --    355.4483               478.3070               787.0444
 Red. masses --      1.4910                 4.7909                 1.1029
 Frc consts  --      0.1110                 0.6458                 0.4025
 IR Inten    --    233.6106                15.3545                 8.6744
 Raman Activ --     87.5187                14.1992                 3.2898

                      7                      8                      9
                      A                      A                      A
 Frequencies --    861.5754               937.7033              1020.3552
 Red. masses --      1.3118                 2.2685                 1.8223
 Frc consts  --      0.5737                 1.1752                 1.1178
 IR Inten    --    212.6401                15.2285                 5.7956
 Raman Activ --     13.3157                40.1404                14.9946

                     10                     11                     12
                      A                      A                      A
 Frequencies --   1028.8313              1055.6159              1142.2412
 Red. masses --      4.3954                 2.1537                 1.2843
 Frc consts  --      2.7412                 1.4140                 0.9872
 IR Inten    --    233.0633                17.9449                 8.7476
 Raman Activ --     37.7446                14.8469                 4.8819

                     13                     14                     15
                      A                      A                      A
 Frequencies --   1237.8292              1305.9200              1335.2241
 Red. masses --      1.4020                 1.0955                 1.2338
 Frc consts  --      1.2657                 1.1007                 1.2960
 IR Inten    --      6.3473                11.4937                37.7694
 Raman Activ --     19.3723                29.1503                26.9420

                     16                     17                     18
                      A                      A                      A
 Frequencies --   1344.7949              1381.8177              1467.2445
 Red. masses --      1.2204                 1.3888                 1.0882
 Frc consts  --      1.3004                 1.5624                 1.3803
 IR Inten    --     48.9149                 1.3907                 4.7483
 Raman Activ --     21.8389                19.6928                68.4265

                     19                     20                     21
                      A                      A                      A
 Frequencies --   1497.3837              1632.7111              2719.1103
 Red. masses --      1.0923                 1.0869                 1.0719
 Frc consts  --      1.4430                 1.7070                 4.6694
 IR Inten    --      4.6397                62.2172               530.4283
 Raman Activ --     10.7482                 6.0897              1068.3261

                     22                     23                     24
                      A                      A                      A
 Frequencies --   2927.6761              2941.6608              3032.1168
 Red. masses --      1.0717                 1.0791                 1.0898
 Frc consts  --      5.4119                 5.5017                 5.9034
 IR Inten    --     22.3792               296.1432               100.1509
 Raman Activ --    527.5910                55.9883               183.3050

                     25                     26                     27
                      A                      A                      A
 Frequencies --   3371.7034              3475.3985              3547.0361
 Red. masses --      1.0722                 1.0501                 1.0922
 Frc consts  --      7.1816                 7.4729                 8.0959
 IR Inten    --    121.4917                 2.1511                 0.4744
 Raman Activ --    358.5795               277.5590               166.7063

 - Thermochemistry -
 -------------------
 Temperature   298.150 Kelvin.  Pressure   1.00000 Atm.
 Thermochemistry will use frequencies scaled by 0.9670.

 Molecular mass:    59.06092 amu.
 Principal axes and moments of inertia in atomic units:
                           1         2         3
     Eigenvalues --    63.00547 466.35193 496.51046
           X            0.93818  -0.34033   0.06323
           Y            0.34102   0.94006  -0.00018
           Z           -0.05938   0.02173   0.99800
 This molecule is an asymmetric top.
 Rotational symmetry number  1.
 Rotational temperatures (Kelvin)      1.37470     0.18573     0.17445
 Rotational constants (GHZ):          28.64420     3.86991     3.63485
 Zero-point vibrational energy     240322.3 (Joules/Mol)
                                   57.43841 (Kcal/Mol)
 Warning -- explicit consideration of   5 degrees of freedom as
           vibrations may cause significant error
 Vibrational temperatures:    217.41   309.33   398.68   494.53   665.47
          (Kelvin)           1095.01  1198.71  1304.62  1419.62  1431.41
                             1468.68  1589.20  1722.19  1816.92  1857.69
                             1871.01  1922.52  2041.37  2083.31  2271.59
                             3783.09  4073.27  4092.72  4218.58  4691.04
                             4835.31  4934.98

 Zero-point correction=                           0.091534 (Hartree/Particle)
 Thermal correction to Energy=                    0.097043
 Thermal correction to Enthalpy=                  0.097987
 Thermal correction to Gibbs Free Energy=         0.063968
 Sum of electronic and zero-point Energies=           -189.965291
 Sum of electronic and thermal Energies=              -189.959782
 Sum of electronic and thermal Enthalpies=            -189.958838
 Sum of electronic and thermal Free Energies=         -189.992857

                     E (Thermal)             CV                S
                      KCal/Mol        Cal/Mol-Kelvin    Cal/Mol-Kelvin
 Total                   60.895             18.583             71.599
 Electronic               0.000              0.000              0.000
 Translational            0.889              2.981             38.148
 Rotational               0.889              2.981             24.193
 Vibrational             59.118             12.622              9.258
 Vibration     1          0.619              1.901              2.658
 Vibration     2          0.645              1.818              2.001
 Vibration     3          0.678              1.716              1.552
 Vibration     4          0.722              1.588              1.195
 Vibration     5          0.820              1.333              0.759

 Normal termination of Gaussian 16 at Fri Jun  2 11:31:09 2023.
