 Gaussian 16, Revision C.01,
 Gaussian 16:  ES64L-G16RevC.01  3-Jul-2019

 ----------------------------------------------------------------------
 #p freq=raman scale=0.967 pop=(nbo,full,hirshfeld) guess=read geom=all
 check b3lyp/6-311+G(d,p) int=grid=ultrafine EmpiricalDispersion=GD3BJ
 SCRF=(Solvent=ethanol) scf=(xqc,intrep,maxconventionalcycle=350) nosym
 m
 ----------------------------------------------------------------------

 Structure from the checkpoint file:  "/scratch1/svicchi/G09-659918.pbs02/02-freq/glycerol-H_dissociation-site_index-3-freq.chk"
 ----------------------------------------
 glycerol-H_dissociation-site_index-3.gjf
 ----------------------------------------
 Charge = -1 Multiplicity = 1

                          Input orientation:
 ---------------------------------------------------------------------
 Center     Atomic      Atomic             Coordinates (Angstroms)
 Number     Number       Type             X           Y           Z
 ---------------------------------------------------------------------
      1          8           0        2.356735   -0.003057    0.045367
      2          6           0        1.278444    0.904447    0.296032
      3          6           0       -0.000058    0.267547   -0.283482
      4          8           0       -0.000352   -1.092072   -0.024859
      5          6           0       -1.279175    0.904664    0.294416
      6          8           0       -2.357297   -0.002697    0.042362
      7          1           0        1.855436   -0.851682    0.018500
      8          1           0        1.162967    1.050872    1.380964
      9          1           0        1.514016    1.869435   -0.164266
     10          1           0        0.000652    0.468134   -1.380220
     11          1           0       -1.165043    1.051073    1.379509
     12          1           0       -1.514003    1.869696   -0.166197
     13          1           0       -1.856054   -0.851385    0.016164
 ---------------------------------------------------------------------

 SCF Done:  E(RB3LYP) =  -344.436381729     A.U. after    1 cycles

 Alpha  occ. eigenvalues --  -19.09559 -19.09559 -19.01775 -10.18857 -10.18856
 Alpha  occ. eigenvalues --  -10.17915  -1.00426  -0.99563  -0.89798  -0.70968
 Alpha  occ. eigenvalues --   -0.63760  -0.54693  -0.48391  -0.47997  -0.43037
 Alpha  occ. eigenvalues --   -0.42194  -0.40720  -0.37390  -0.35490  -0.32164
 Alpha  occ. eigenvalues --   -0.29895  -0.26764  -0.25433  -0.21101  -0.19265
 Alpha virt. eigenvalues --    0.01747   0.03110   0.03467   0.03507   0.06724
 Alpha virt. eigenvalues --    0.06932   0.07924   0.08028   0.09608   0.12148
 Alpha virt. eigenvalues --    0.13054   0.13145   0.16889   0.18030   0.18120

 Mulliken charges:
               1
     1  O   -0.404336
     2  C   -0.220117
     3  C   -0.017862
     4  O   -0.784571
     5  C   -0.220127
     6  O   -0.404352
     7  H    0.246814
     8  H    0.110716
     9  H    0.128014
    10  H    0.080273
    11  H    0.110718
    12  H    0.128017
    13  H    0.246813
 Sum of Mulliken charges =  -1.00000

 Dipole moment (field-independent basis, Debye):
    X=              0.0018    Y=              3.7809    Z=              0.2146  Tot=              3.7870
 Quadrupole moment (field-independent basis, Debye-Ang):
   XX=            -63.8602   YY=            -42.3486   ZZ=            -41.5440
   XY=              0.0004   XZ=             -0.0143   YZ=              0.1218

  Exact polarizability:      82.311      -0.000      77.426       0.005       0.109      74.004
 Approx polarizability:      80.722       0.000      82.546       0.003      -0.302      75.570

 Summary of Natural Population Analysis:

                                       Natural Population
                Natural  -----------------------------------------------
    Atom  No    Charge         Core      Valence    Rydberg      Total
 -----------------------------------------------------------------------
      O    1   -0.80762      1.99982     6.79309    0.01471     8.80762
      C    2   -0.04921      1.99921     4.02494    0.02506     6.04921
      C    3    0.06627      1.99929     3.90187    0.03257     5.93373
      O    4   -1.02914      1.99984     7.01430    0.01500     9.02914
      C    5   -0.04922      1.99921     4.02494    0.02506     6.04922
      O    6   -0.80763      1.99982     6.79311    0.01471     8.80763
      H    7    0.48450      0.00000     0.50870    0.00680     0.51550
      H    8    0.13982      0.00000     0.85632    0.00385     0.86018
      H    9    0.16113      0.00000     0.83630    0.00258     0.83887
      H   10    0.10564      0.00000     0.88738    0.00698     0.89436
      H   11    0.13983      0.00000     0.85632    0.00385     0.86017
      H   12    0.16113      0.00000     0.83629    0.00258     0.83887
      H   13    0.48450      0.00000     0.50870    0.00680     0.51550
 =======================================================================
   * Total *   -1.00000     11.99718    37.84227    0.16055    50.00000

                      1                      2                      3
                      A                      A                      A
 Frequencies --    104.8379               125.2564               215.6034
 Red. masses --      5.7334                 2.2492                 5.3811
 Frc consts  --      0.0371                 0.0208                 0.1474
 IR Inten    --      1.2340                27.4620                 0.3711
 Raman Activ --      1.4516                 0.5253                 1.4231

                      4                      5                      6
                      A                      A                      A
 Frequencies --    337.4012               417.9212               511.9837
 Red. masses --      4.8123                 4.9620                 2.2679
 Frc consts  --      0.3228                 0.5106                 0.3503
 IR Inten    --    125.3538                 0.9682                10.9709
 Raman Activ --      2.4447                10.8667                 5.0423

                      7                      8                      9
                      A                      A                      A
 Frequencies --    602.3784               699.2355               704.3695
 Red. masses --      3.4007                 1.0734                 1.0960
 Frc consts  --      0.7270                 0.3092                 0.3204
 IR Inten    --     10.6154                44.4374               270.2272
 Raman Activ --      4.2868                 1.7501                 2.7766

                     10                     11                     12
                      A                      A                      A
 Frequencies --    866.0053               907.2766               992.3866
 Red. masses --      2.8477                 1.4198                 6.4081
 Frc consts  --      1.2583                 0.6886                 3.7183
 IR Inten    --     84.1693                 7.9511               191.9355
 Raman Activ --     17.1626                 5.2971                 1.4945

                     13                     14                     15
                      A                      A                      A
 Frequencies --   1041.5055              1058.1699              1097.3282
 Red. masses --      5.3796                 2.6847                 5.1905
 Frc consts  --      3.4382                 1.7712                 3.6824
 IR Inten    --    120.6554                36.4304               105.9474
 Raman Activ --     12.2504                14.3162                 0.4211

                     16                     17                     18
                      A                      A                      A
 Frequencies --   1129.3520              1196.0793              1236.0421
 Red. masses --      2.2225                 1.1285                 1.2632
 Frc consts  --      1.6701                 0.9512                 1.1370
 IR Inten    --     46.4785                77.8523                11.9175
 Raman Activ --     17.0688                12.1168                 9.6704

                     19                     20                     21
                      A                      A                      A
 Frequencies --   1282.1123              1333.4892              1346.9275
 Red. masses --      1.2511                 1.2275                 1.2415
 Frc consts  --      1.2117                 1.2861                 1.3270
 IR Inten    --      0.8419                 3.8196               124.7879
 Raman Activ --      9.3691                10.1652                28.7532

                     22                     23                     24
                      A                      A                      A
 Frequencies --   1359.5015              1444.8394              1468.7023
 Red. masses --      1.1460                 1.3184                 1.1836
 Frc consts  --      1.2479                 1.6216                 1.5042
 IR Inten    --     30.3764               251.2344                 6.5117
 Raman Activ --      7.5910                 2.9887                52.2757

                     25                     26                     27
                      A                      A                      A
 Frequencies --   1495.8407              1500.5369              2776.6554
 Red. masses --      1.0851                 1.1098                 1.0777
 Frc consts  --      1.4305                 1.4723                 4.8955
 IR Inten    --      5.2883                 1.5308               324.9856
 Raman Activ --      0.2182                33.4765               675.2383

                     28                     29                     30
                      A                      A                      A
 Frequencies --   2947.5702              2958.5313              3038.3378
 Red. masses --      1.0685                 1.0675                 1.0923
 Frc consts  --      5.4697                 5.5049                 5.9410
 IR Inten    --      2.0767               307.3863                10.1527
 Raman Activ --      1.8484               539.7112                58.2095

                     31                     32                     33
                      A                      A                      A
 Frequencies --   3043.6775              3389.6082              3420.4025
 Red. masses --      1.0938                 1.0644                 1.0645
 Frc consts  --      5.9701                 7.2055                 7.3374
 IR Inten    --    222.2010               536.9739               276.1029
 Raman Activ --    424.7224                 7.6943               193.2783

 - Thermochemistry -
 -------------------
 Temperature   298.150 Kelvin.  Pressure   1.00000 Atm.
 Thermochemistry will use frequencies scaled by 0.9670.

 Molecular mass:    91.03952 amu.
 Principal axes and moments of inertia in atomic units:
                           1         2         3
     Eigenvalues --   205.40718 852.509311004.59899
           X            1.00000  -0.00003  -0.00064
           Y           -0.00007   0.98688  -0.16148
           Z            0.00064   0.16148   0.98688
 This molecule is an asymmetric top.
 Rotational symmetry number  1.
 Rotational temperatures (Kelvin)      0.42167     0.10160     0.08622
 Rotational constants (GHZ):           8.78616     2.11698     1.79648
 Zero-point vibrational energy     266349.9 (Joules/Mol)
                                   63.65914 (Kcal/Mol)
 Warning -- explicit consideration of   7 degrees of freedom as
           vibrations may cause significant error
 Vibrational temperatures:    145.86   174.27   299.97   469.43   581.45
          (Kelvin)            712.32   838.09   972.84   979.99  1204.87
                             1262.29  1380.70  1449.04  1472.23  1526.71
                             1571.26  1664.10  1719.70  1783.80  1855.28
                             1873.98  1891.47  2010.20  2043.40  2081.16
                             2087.69  3863.15  4100.95  4116.20  4227.23
                             4234.66  4715.95  4758.80

 Zero-point correction=                           0.101447 (Hartree/Particle)
 Thermal correction to Energy=                    0.107994
 Thermal correction to Enthalpy=                  0.108939
 Thermal correction to Gibbs Free Energy=         0.071051
 Sum of electronic and zero-point Energies=           -344.334934
 Sum of electronic and thermal Energies=              -344.328387
 Sum of electronic and thermal Enthalpies=            -344.327443
 Sum of electronic and thermal Free Energies=         -344.365331

                     E (Thermal)             CV                S
                      KCal/Mol        Cal/Mol-Kelvin    Cal/Mol-Kelvin
 Total                   67.767             23.146             79.741
 Electronic               0.000              0.000              0.000
 Translational            0.889              2.981             39.438
 Rotational               0.889              2.981             26.667
 Vibrational             65.990             17.184             13.636
 Vibration     1          0.604              1.948              3.428
 Vibration     2          0.609              1.932              3.082
 Vibration     3          0.642              1.828              2.057
 Vibration     4          0.710              1.623              1.279
 Vibration     5          0.769              1.461              0.948
 Vibration     6          0.851              1.261              0.671
 Vibration     7          0.939              1.069              0.481

 Normal termination of Gaussian 16 at Fri Jun  2 11:29:04 2023.
