 Gaussian 16, Revision C.02,
 Gaussian 16:  ES64L-G16RevC.02  7-Dec-2021

 ----------------------------------------------------------------------
 #p freq=raman scale=0.967 guess=read geom=allcheck b3lyp/6-311+G(d,p)
 int=grid=ultrafine EmpiricalDispersion=GD3BJ SCRF=(Solvent=ethanol) sc
 f=(xqc,intrep,maxconventionalcycle=350) nosymm
 ----------------------------------------------------------------------

 Structure from the checkpoint file:  "/scratch1/svicchi/G09-1734039.pbs02/02-freq/PyrMe-CO2_binding-site_index-6-freq.chk"
 ------------------------------
 PyrMe-CO2_binding-site_index-6
 ------------------------------
 Charge = -1 Multiplicity = 1

                          Input orientation:
 ---------------------------------------------------------------------
 Center     Atomic      Atomic             Coordinates (Angstroms)
 Number     Number       Type             X           Y           Z
 ---------------------------------------------------------------------
      1          6           0       -0.390387    0.566171   -0.241153
      2          6           0       -1.008056   -0.646209   -0.419736
      3          6           0        0.019308   -1.640377   -0.428164
      4          1           0       -2.070179   -0.806397   -0.531455
      5          6           0        1.232775   -1.007580   -0.254314
      6          1           0       -0.108184   -2.706758   -0.547359
      7          7           0        0.975615    0.356921   -0.139527
      8          1           0       -0.782028    1.565651   -0.175598
      9          6           0        2.584636   -1.640479   -0.194577
     10          1           0        2.467038   -2.719872   -0.316824
     11          1           0        3.086400   -1.448582    0.756307
     12          1           0        3.247950   -1.269194   -0.978586
     13          6           0        1.941154    1.459589    0.054380
     14          8           0        1.424541    2.592778    0.116115
     15          8           0        3.135939    1.121704    0.130445
 ---------------------------------------------------------------------

 SCF Done:  E(RB3LYP) =  -437.769627620     A.U. after    1 cycles

 Alpha  occ. eigenvalues --  -19.06023 -19.05999 -14.34151 -10.28122 -10.18867
 Alpha  occ. eigenvalues --  -10.17480 -10.15633 -10.14846 -10.14477  -1.04284
 Alpha  occ. eigenvalues --   -0.95040  -0.94737  -0.76611  -0.74886  -0.66096
 Alpha  occ. eigenvalues --   -0.59587  -0.56031  -0.50292  -0.46676  -0.44072
 Alpha  occ. eigenvalues --   -0.42509  -0.41947  -0.40648  -0.39678  -0.38192
 Alpha  occ. eigenvalues --   -0.37574  -0.35827  -0.35276  -0.26502  -0.25530
 Alpha  occ. eigenvalues --   -0.23887  -0.23614  -0.20277
 Alpha virt. eigenvalues --    0.01133   0.01138   0.02717   0.03264   0.04344
 Alpha virt. eigenvalues --    0.05206   0.05514   0.05881   0.06448   0.08193
 Alpha virt. eigenvalues --    0.08289   0.08539   0.08694   0.10034   0.10391

 Mulliken charges:
               1
     1  C    0.014982
     2  C   -0.420155
     3  C   -0.152054
     4  H    0.125574
     5  C    0.141467
     6  H    0.117238
     7  N   -0.047435
     8  H    0.145786
     9  C   -0.656416
    10  H    0.135222
    11  H    0.151543
    12  H    0.151580
    13  C    0.409013
    14  O   -0.558857
    15  O   -0.557487
 Sum of Mulliken charges =  -1.00000

 Dipole moment (field-independent basis, Debye):
    X=             -9.3003    Y=             -8.0622    Z=             -0.3561  Tot=             12.3135
 Quadrupole moment (field-independent basis, Debye-Ang):
   XX=            -82.0100   YY=            -75.7699   ZZ=            -57.8546
   XY=            -18.4928   XZ=             -1.5612   YZ=             -1.2821

  Exact polarizability:     139.269       2.395     134.984       5.854       5.956      78.463
 Approx polarizability:     154.534      -0.843     149.453       6.209       6.323      86.531

                      1                      2                      3
                      A                      A                      A
 Frequencies --     53.1438               142.7993               202.4076
 Red. masses --      7.6943                 3.9360                 1.2564
 Frc consts  --      0.0128                 0.0473                 0.0303
 IR Inten    --      0.2859                 6.3806                 0.3118
 Raman Activ --      0.8606                 4.0123                 0.6230

                      4                      5                      6
                      A                      A                      A
 Frequencies --    233.2901               248.0018               345.5001
 Red. masses --      4.5938                 2.7663                 3.4199
 Frc consts  --      0.1473                 0.1002                 0.2405
 IR Inten    --      3.9876                 4.7897                 5.6967
 Raman Activ --      0.2338                 3.8859                 2.6366

                      7                      8                      9
                      A                      A                      A
 Frequencies --    421.2548               545.9820               619.6582
 Red. masses --      7.8956                 5.1268                 3.4218
 Frc consts  --      0.8255                 0.9004                 0.7741
 IR Inten    --      2.1084                 2.1937                 4.0804
 Raman Activ --      5.3878                 2.9801                 1.9644

                     10                     11                     12
                      A                      A                      A
 Frequencies --    637.0852               683.3185               723.0826
 Red. masses --      3.1578                 4.9349                 1.2800
 Frc consts  --      0.7551                 1.3576                 0.3943
 IR Inten    --      0.1561                22.4239               149.0289
 Raman Activ --      4.0108                15.0592                12.9342

                     13                     14                     15
                      A                      A                      A
 Frequencies --    779.8922               780.3969               807.1301
 Red. masses --     10.9947                 1.5517                 4.8421
 Frc consts  --      3.9401                 0.5568                 1.8586
 IR Inten    --    293.9049                 4.6546                49.1085
 Raman Activ --     17.0201                18.6354                 0.5856

                     16                     17                     18
                      A                      A                      A
 Frequencies --    872.7047               906.3011               996.5073
 Red. masses --      1.3021                 4.4207                 1.5439
 Frc consts  --      0.5843                 2.1394                 0.9033
 IR Inten    --      0.8911                10.6279                25.8574
 Raman Activ --      4.6946                17.6545                 5.5926

                     19                     20                     21
                      A                      A                      A
 Frequencies --   1024.8810              1060.3867              1062.9838
 Red. masses --      1.2977                 1.4590                 1.6309
 Frc consts  --      0.8031                 0.9666                 1.0858
 IR Inten    --     22.8128                 1.6517               139.5462
 Raman Activ --      1.7987                 0.3452                15.9149

                     22                     23                     24
                      A                      A                      A
 Frequencies --   1163.3576              1216.0973              1253.4548
 Red. masses --      3.2056                 2.4557                 2.1935
 Frc consts  --      2.5562                 2.1397                 2.0305
 IR Inten    --      5.6275               348.6158               317.9967
 Raman Activ --      2.0812                50.5098               103.7168

                     25                     26                     27
                      A                      A                      A
 Frequencies --   1297.1804              1346.5508              1413.5168
 Red. masses --      7.3028                 6.7258                 1.2615
 Frc consts  --      7.2400                 7.1852                 1.4851
 IR Inten    --    564.5732                 7.0084                 5.7972
 Raman Activ --      9.5760                30.0390                15.7458

                     28                     29                     30
                      A                      A                      A
 Frequencies --   1424.8117              1459.6245              1473.6652
 Red. masses --      2.4610                 1.0451                 1.4551
 Frc consts  --      2.9436                 1.3118                 1.8619
 IR Inten    --     17.8594                 9.0131                17.3326
 Raman Activ --     21.0057                17.0877                95.3538

                     31                     32                     33
                      A                      A                      A
 Frequencies --   1506.8670              1579.8920              1682.8185
 Red. masses --      3.1234                 5.0315                12.4936
 Frc consts  --      4.1785                 7.3996                20.8455
 IR Inten    --     21.0452                13.5456              1122.8321
 Raman Activ --    152.3110                23.3520                13.2063

                     34                     35                     36
                      A                      A                      A
 Frequencies --   3032.0061              3085.7907              3098.6398
 Red. masses --      1.0348                 1.1005                 1.1021
 Frc consts  --      5.6049                 6.1739                 6.2349
 IR Inten    --     62.7982                31.0595                45.2579
 Raman Activ --    493.5641               197.1380               206.8395

                     37                     38                     39
                      A                      A                      A
 Frequencies --   3210.0664              3226.5902              3280.4774
 Red. masses --      1.0917                 1.0981                 1.0988
 Frc consts  --      6.6277                 6.7358                 6.9669
 IR Inten    --     19.7948                13.1672                 3.5872
 Raman Activ --    187.9447               290.1160               165.4362

 - Thermochemistry -
 -------------------
 Temperature   298.150 Kelvin.  Pressure   1.00000 Atm.
 Thermochemistry will use frequencies scaled by 0.9670.

 Molecular mass:   124.03985 amu.
 Principal axes and moments of inertia in atomic units:
                           1         2         3
     Eigenvalues --   665.242831081.644231735.84063
           X            0.57948   0.81007  -0.08937
           Y            0.80426  -0.58614  -0.09803
           Z            0.13179   0.01507   0.99116
 This molecule is an asymmetric top.
 Rotational symmetry number  1.
 Warning -- assumption of classical behavior for rotation
           may cause significant error
 Rotational temperatures (Kelvin)      0.13020     0.08008     0.04990
 Rotational constants (GHZ):           2.71291     1.66852     1.03969
 Zero-point vibrational energy     282824.0 (Joules/Mol)
                                   67.59655 (Kcal/Mol)
 Warning -- explicit consideration of  10 degrees of freedom as
           vibrations may cause significant error
 Vibrational temperatures:     73.94   198.68   281.61   324.58   345.04
          (Kelvin)            480.69   586.09   759.62   862.13   886.37
                              950.70  1006.02  1085.06  1085.76  1122.96
                             1214.19  1260.93  1386.44  1425.91  1475.31
                             1478.93  1618.58  1691.95  1743.93  1804.76
                             1873.45  1966.62  1982.34  2030.77  2050.31
                             2096.50  2198.10  2341.30  4218.42  4293.25
                             4311.13  4466.16  4489.15  4564.12

 Zero-point correction=                           0.107722 (Hartree/Particle)
 Thermal correction to Energy=                    0.115748
 Thermal correction to Enthalpy=                  0.116692
 Thermal correction to Gibbs Free Energy=         0.074647
 Sum of electronic and zero-point Energies=           -437.661906
 Sum of electronic and thermal Energies=              -437.653880
 Sum of electronic and thermal Enthalpies=            -437.652935
 Sum of electronic and thermal Free Energies=         -437.694980

                     E (Thermal)             CV                S
                      KCal/Mol        Cal/Mol-Kelvin    Cal/Mol-Kelvin
 Total                   72.633             29.690             88.491
 Electronic               0.000              0.000              0.000
 Translational            0.889              2.981             40.360
 Rotational               0.889              2.981             28.615
 Vibrational             70.856             23.728             19.516
 Vibration     1          0.596              1.977              4.763
 Vibration     2          0.614              1.915              2.830
 Vibration     3          0.636              1.846              2.173
 Vibration     4          0.650              1.802              1.914
 Vibration     5          0.657              1.780              1.804
 Vibration     6          0.716              1.607              1.240
 Vibration     7          0.772              1.454              0.936
 Vibration     8          0.883              1.188              0.592
 Vibration     9          0.957              1.033              0.451
 Vibration    10          0.976              0.998              0.423

 Optimization completed.
    -- Stationary point found.
 Normal termination of Gaussian 16 at Thu Dec 14 12:55:00 2023.
