 Gaussian 16, Revision C.02,
 Gaussian 16:  ES64L-G16RevC.02  7-Dec-2021

 ----------------------------------------------------------------------
 #p freq=raman scale=0.967 guess=read geom=allcheck b3lyp/6-311+G(d,p)
 int=grid=ultrafine EmpiricalDispersion=GD3BJ SCRF=(Solvent=ethanol) sc
 f=(xqc,intrep,maxconventionalcycle=350) nosymm
 ----------------------------------------------------------------------

 Structure from the checkpoint file:  "/scratch1/svicchi/G09-1868847.pbs02/02-freq/IMIDF-isolated-freq.chk"
 --------------
 IMIDF-isolated
 --------------
 Charge = -1 Multiplicity = 1

                          Input orientation:
 ---------------------------------------------------------------------
 Center     Atomic      Atomic             Coordinates (Angstroms)
 Number     Number       Type             X           Y           Z
 ---------------------------------------------------------------------
      1          6           0       -2.117639    3.299120    0.379242
      2          7           0       -1.189837    2.360864    0.273960
      3          6           0       -1.885910    1.360302   -0.389214
      4          6           0       -3.179062    1.792291   -0.623912
      5          1           0       -1.415337    0.420806   -0.644622
      6          7           0       -3.325604    3.074271   -0.113416
      7          1           0       -3.998352    1.283413   -1.112892
      8          9           0       -1.831338    4.487584    0.990643
 ---------------------------------------------------------------------

 SCF Done:  E(RB3LYP) =  -325.094444996     A.U. after    2 cycles

 Alpha  occ. eigenvalues --  -24.67067 -14.26956 -14.26952 -10.24847 -10.15553
 Alpha  occ. eigenvalues --  -10.15495  -1.20699  -0.96279  -0.81765  -0.69266
 Alpha  occ. eigenvalues --   -0.56425  -0.56375  -0.47605  -0.45885  -0.43302
 Alpha  occ. eigenvalues --   -0.42015  -0.36810  -0.36175  -0.28834  -0.25095
 Alpha  occ. eigenvalues --   -0.23943  -0.19262
 Alpha virt. eigenvalues --    0.01809   0.03167   0.04305   0.05516   0.05910
 Alpha virt. eigenvalues --    0.06988   0.07342   0.08559   0.08627   0.10064
 Alpha virt. eigenvalues --    0.11476   0.11730   0.14471   0.15071   0.15782

 Mulliken charges:
               1
     1  C    0.278689
     2  N   -0.415526
     3  C   -0.197716
     4  C   -0.197693
     5  H    0.106987
     6  N   -0.415626
     7  H    0.106967
     8  F   -0.266082
 Sum of Mulliken charges =  -1.00000

 Dipole moment (field-independent basis, Debye):
    X=             10.3997    Y=            -14.9002    Z=             -1.3355  Tot=             18.2196
 Quadrupole moment (field-independent basis, Debye-Ang):
   XX=            -68.4129   YY=            -86.1748   ZZ=            -39.2470
   XY=             34.5729   XZ=              1.4651   YZ=             -4.0410

  Exact polarizability:      80.605      -4.663      74.404       7.751       8.808      57.046
 Approx polarizability:      92.496      -6.218      83.769       9.971      11.054      61.787

                      1                      2                      3
                      A                      A                      A
 Frequencies --    314.1062               464.1795               658.2258
 Red. masses --      7.4833                 9.2473                 4.1425
 Frc consts  --      0.4350                 1.1739                 1.0575
 IR Inten    --      3.5231                 2.3926                 0.0032
 Raman Activ --      3.8443                 2.7555                 0.2549

                      4                      5                      6
                      A                      A                      A
 Frequencies --    675.1231               707.3541               740.6067
 Red. masses --     14.3679                 3.6369                 1.5579
 Frc consts  --      3.8584                 1.0722                 0.5035
 IR Inten    --     35.2437                69.6714                69.3803
 Raman Activ --     12.5616                14.3552                 7.8175

                      7                      8                      9
                      A                      A                      A
 Frequencies --    808.8201               939.6738              1000.6134
 Red. masses --      1.3102                 8.1902                 3.3691
 Frc consts  --      0.5050                 4.2609                 1.9875
 IR Inten    --      0.0124                12.6291                58.1395
 Raman Activ --     19.5135                 2.4323                 2.5489

                     10                     11                     12
                      A                      A                      A
 Frequencies --   1110.3937              1134.5804              1186.3687
 Red. masses --      1.7790                 2.1711                 7.1514
 Frc consts  --      1.2924                 1.6466                 5.9303
 IR Inten    --      4.8981                65.0664                17.0989
 Raman Activ --     37.7957                 4.2029                24.1596

                     13                     14                     15
                      A                      A                      A
 Frequencies --   1314.1210              1385.4787              1471.0655
 Red. masses --      2.4479                12.2244                 3.5773
 Frc consts  --      2.4907                13.8254                 4.5611
 IR Inten    --     11.0735               443.6706                 3.8702
 Raman Activ --     27.7310                87.7890                72.9758

                     16                     17                     18
                      A                      A                      A
 Frequencies --   1492.0360              3192.4722              3214.3305
 Red. masses --      5.6329                 1.0876                 1.1036
 Frc consts  --      7.3882                 6.5307                 6.7180
 IR Inten    --    220.9663                11.8188                46.9051
 Raman Activ --     17.3215               172.2524               244.3767

 - Thermochemistry -
 -------------------
 Temperature   298.150 Kelvin.  Pressure   1.00000 Atm.
 Thermochemistry will use frequencies scaled by 0.9670.

 Molecular mass:    85.02020 amu.
 Principal axes and moments of inertia in atomic units:
                           1         2         3
     Eigenvalues --   185.27675 476.04941 661.32615
           X            0.20947   0.93473  -0.28707
           Y            0.86956  -0.31234  -0.38250
           Z            0.44720   0.16951   0.87823
 This molecule is an asymmetric top.
 Rotational symmetry number  1.
 Rotational temperatures (Kelvin)      0.46748     0.18194     0.13097
 Rotational constants (GHZ):           9.74079     3.79108     2.72897
 Zero-point vibrational energy     126145.2 (Joules/Mol)
                                   30.14943 (Kcal/Mol)
 Warning -- explicit consideration of   2 degrees of freedom as
           vibrations may cause significant error
 Vibrational temperatures:    437.02   645.81   915.79   939.30   984.14
          (Kelvin)           1030.40  1125.31  1307.37  1392.15  1544.89
                             1578.54  1650.59  1828.33  1927.61  2046.69
                             2075.87  4441.68  4472.09

 Zero-point correction=                           0.048046 (Hartree/Particle)
 Thermal correction to Energy=                    0.052345
 Thermal correction to Enthalpy=                  0.053289
 Thermal correction to Gibbs Free Energy=         0.020456
 Sum of electronic and zero-point Energies=           -325.046399
 Sum of electronic and thermal Energies=              -325.042100
 Sum of electronic and thermal Enthalpies=            -325.041156
 Sum of electronic and thermal Free Energies=         -325.073989

                     E (Thermal)             CV                S
                      KCal/Mol        Cal/Mol-Kelvin    Cal/Mol-Kelvin
 Total                   32.847             15.421             69.104
 Electronic               0.000              0.000              0.000
 Translational            0.889              2.981             39.234
 Rotational               0.889              2.981             25.570
 Vibrational             31.070              9.459              4.300
 Vibration     1          0.695              1.667              1.396
 Vibration     2          0.808              1.363              0.799

 Optimization completed.
    -- Stationary point found.
 Normal termination of Gaussian 16 at Thu Jan 11 13:06:00 2024.
