 Gaussian 16, Revision C.01,
 Gaussian 16:  ES64L-G16RevC.01  3-Jul-2019

 ----------------------------------------------------------------------
 #p freq=raman scale=0.967 pop=(nbo,full,hirshfeld) guess=read geom=all
 check b3lyp/6-311+G(d,p) int=grid=ultrafine EmpiricalDispersion=GD3BJ
 SCRF=(Solvent=ethanol) scf=(xqc,intrep,maxconventionalcycle=350) nosym
 m
 ----------------------------------------------------------------------

 Structure from the checkpoint file:  "/scratch1/svicchi/G09-659916.pbs02/02-freq/glycerol-isolated-freq.chk"
 ---------------------
 glycerol-isolated.gjf
 ---------------------
 Charge =  0 Multiplicity = 1

                          Input orientation:
 ---------------------------------------------------------------------
 Center     Atomic      Atomic             Coordinates (Angstroms)
 Number     Number       Type             X           Y           Z
 ---------------------------------------------------------------------
      1          8           0        2.388839    0.093671   -0.355677
      2          6           0        1.253429    0.662168    0.297810
      3          6           0        0.000091   -0.051344   -0.193593
      4          8           0        0.000045   -1.437765    0.156721
      5          6           0       -1.253489    0.662121    0.297257
      6          8           0       -2.388595    0.093594   -0.356732
      7          1           0        3.181012    0.515688   -0.007506
      8          1           0        1.340356    0.552581    1.386776
      9          1           0        1.173356    1.730738    0.067398
     10          1           0        0.000332   -0.038949   -1.287024
     11          1           0       -0.000199   -1.510270    1.119194
     12          1           0       -1.340896    0.552521    1.386181
     13          1           0       -1.173347    1.730695    0.066889
     14          1           0       -3.180937    0.515583   -0.008890
 ---------------------------------------------------------------------

 SCF Done:  E(RB3LYP) =  -344.925361205     A.U. after    1 cycles

 Alpha  occ. eigenvalues --  -19.13410 -19.13410 -19.13215 -10.23149 -10.22560
 Alpha  occ. eigenvalues --  -10.22558  -1.04696  -1.03314  -1.02141  -0.77873
 Alpha  occ. eigenvalues --   -0.68325  -0.61780  -0.53245  -0.52306  -0.50498
 Alpha  occ. eigenvalues --   -0.48593  -0.45362  -0.42315  -0.40088  -0.38917
 Alpha  occ. eigenvalues --   -0.36194  -0.33434  -0.29667  -0.29133  -0.28722
 Alpha virt. eigenvalues --   -0.00063   0.00908   0.02313   0.02940   0.03513
 Alpha virt. eigenvalues --    0.06336   0.06986   0.07101   0.07333   0.10635
 Alpha virt. eigenvalues --    0.11804   0.12201   0.14804   0.15485   0.16394

 Mulliken charges:
               1
     1  O   -0.386674
     2  C   -0.254752
     3  C    0.029813
     4  O   -0.338216
     5  C   -0.254749
     6  O   -0.386673
     7  H    0.281590
     8  H    0.156608
     9  H    0.151613
    10  H    0.159925
    11  H    0.251704
    12  H    0.156608
    13  H    0.151613
    14  H    0.281590
 Sum of Mulliken charges =  -0.00000

 Dipole moment (field-independent basis, Debye):
    X=             -0.0011    Y=              4.8566    Z=              4.2738  Tot=              6.4693
 Quadrupole moment (field-independent basis, Debye-Ang):
   XX=            -31.0470   YY=            -38.8241   ZZ=            -35.7553
   XY=              0.0010   XZ=              0.0011   YZ=             -2.0819

  Exact polarizability:      67.737      -0.000      61.744       0.002       0.347      59.884
 Approx polarizability:      66.977      -0.000      65.913       0.000       0.679      65.926

 Summary of Natural Population Analysis:

                                       Natural Population
                Natural  -----------------------------------------------
    Atom  No    Charge         Core      Valence    Rydberg      Total
 -----------------------------------------------------------------------
      O    1   -0.76163      1.99979     6.74777    0.01407     8.76163
      C    2   -0.04860      1.99915     4.02842    0.02102     6.04860
      C    3    0.07517      1.99913     3.89689    0.02881     5.92483
      O    4   -0.75797      1.99980     6.74370    0.01447     8.75797
      C    5   -0.04859      1.99915     4.02842    0.02102     6.04859
      O    6   -0.76163      1.99979     6.74778    0.01407     8.76163
      H    7    0.47651      0.00000     0.51908    0.00440     0.52349
      H    8    0.16810      0.00000     0.82921    0.00268     0.83190
      H    9    0.17509      0.00000     0.82259    0.00232     0.82491
      H   10    0.19580      0.00000     0.80142    0.00278     0.80420
      H   11    0.46804      0.00000     0.52746    0.00450     0.53196
      H   12    0.16810      0.00000     0.82921    0.00268     0.83190
      H   13    0.17509      0.00000     0.82259    0.00232     0.82491
      H   14    0.47651      0.00000     0.51908    0.00440     0.52349
 =======================================================================
   * Total *   -0.00000     11.99680    37.86362    0.13958    50.00000

                      1                      2                      3
                      A                      A                      A
 Frequencies --     40.8667               103.9258               205.6009
 Red. masses --      2.2868                 5.0517                 1.8614
 Frc consts  --      0.0023                 0.0321                 0.0464
 IR Inten    --      0.1818                17.3512               138.5594
 Raman Activ --      0.0719                 0.0982                 0.0814

                      4                      5                      6
                      A                      A                      A
 Frequencies --    212.6329               214.1030               258.7009
 Red. masses --      1.0886                 1.5371                 1.0489
 Frc consts  --      0.0290                 0.0415                 0.0414
 IR Inten    --      4.0991               223.4595               177.9980
 Raman Activ --      3.5043                 0.6099                 0.7434

                      7                      8                      9
                      A                      A                      A
 Frequencies --    313.5942               404.3620               471.3719
 Red. masses --      6.1090                 4.8450                 2.2872
 Frc consts  --      0.3540                 0.4668                 0.2994
 IR Inten    --      6.6524                 2.4312                13.1171
 Raman Activ --      0.1316                 2.9035                 3.6570

                     10                     11                     12
                      A                      A                      A
 Frequencies --    545.8323               861.4880               915.9232
 Red. masses --      3.0651                 3.2211                 1.5810
 Frc consts  --      0.5380                 1.4085                 0.7814
 IR Inten    --    111.0150                46.7767                 1.5174
 Raman Activ --      0.2723                10.7792                 3.4447

                     13                     14                     15
                      A                      A                      A
 Frequencies --   1005.0965              1040.1914              1077.9401
 Red. masses --      7.2722                 1.8076                 6.0928
 Frc consts  --      4.3284                 1.1524                 4.1712
 IR Inten    --    166.5204                12.1371                49.7519
 Raman Activ --      1.8806                 6.5985                13.0587

                     16                     17                     18
                      A                      A                      A
 Frequencies --   1092.2945              1108.4383              1200.0415
 Red. masses --      2.3112                 2.4021                 1.0725
 Frc consts  --      1.6247                 1.7388                 0.9100
 IR Inten    --    196.2236                21.6333                44.0863
 Raman Activ --      3.1635                 7.1732                 7.8664

                     19                     20                     21
                      A                      A                      A
 Frequencies --   1229.0405              1263.3773              1266.8677
 Red. masses --      1.2073                 1.0986                 1.2321
 Frc consts  --      1.0745                 1.0331                 1.1651
 IR Inten    --     30.3029                 1.9720                56.7201
 Raman Activ --      1.5430                16.9514                 7.4391

                     22                     23                     24
                      A                      A                      A
 Frequencies --   1315.0428              1354.8903              1421.1720
 Red. masses --      1.2769                 1.2827                 1.1892
 Frc consts  --      1.3011                 1.3873                 1.4151
 IR Inten    --     18.6028                 6.3775                45.9127
 Raman Activ --      9.8350                 4.6774                12.7699

                     25                     26                     27
                      A                      A                      A
 Frequencies --   1456.2038              1458.3922              1494.9732
 Red. masses --      1.5264                 1.3994                 1.0835
 Frc consts  --      1.9070                 1.7536                 1.4267
 IR Inten    --      1.1339                 0.9753                10.2312
 Raman Activ --      0.5128                 4.3664                 0.1226

                     28                     29                     30
                      A                      A                      A
 Frequencies --   1511.3467              2983.7065              2996.6218
 Red. masses --      1.0832                 1.0577                 1.0598
 Frc consts  --      1.4578                 5.5478                 5.6071
 IR Inten    --      1.2949                10.0200               122.0686
 Raman Activ --     21.8961                 2.0398               513.8709

                     31                     32                     33
                      A                      A                      A
 Frequencies --   3024.5847              3038.1961              3069.0985
 Red. masses --      1.1057                 1.0993                 1.0885
 Frc consts  --      5.9594                 5.9785                 6.0410
 IR Inten    --      3.2118                90.8297                75.1040
 Raman Activ --      1.7703               312.0016               151.4830

                     34                     35                     36
                      A                      A                      A
 Frequencies --   3796.6878              3833.9852              3834.1446
 Red. masses --      1.0662                 1.0670                 1.0669
 Frc consts  --      9.0552                 9.2408                 9.2410
 IR Inten    --     44.2612                35.4724               110.7477
 Raman Activ --    125.2031               236.5606                71.8033

 - Thermochemistry -
 -------------------
 Temperature   298.150 Kelvin.  Pressure   1.00000 Atm.
 Thermochemistry will use frequencies scaled by 0.9670.

 Molecular mass:    92.04734 amu.
 Principal axes and moments of inertia in atomic units:
                           1         2         3
     Eigenvalues --   239.99785 931.529581072.81787
           X            1.00000  -0.00002  -0.00022
           Y            0.00002   0.99997  -0.00718
           Z            0.00022   0.00718   0.99997
 This molecule is an asymmetric top.
 Rotational symmetry number  1.
 Rotational temperatures (Kelvin)      0.36089     0.09298     0.08073
 Rotational constants (GHZ):           7.51982     1.93740     1.68224
 Zero-point vibrational energy     297414.7 (Joules/Mol)
                                   71.08381 (Kcal/Mol)
 Warning -- explicit consideration of  10 degrees of freedom as
           vibrations may cause significant error
 Vibrational temperatures:     56.86   144.59   286.05   295.84   297.88
          (Kelvin)            359.93   436.30   562.59   655.82   759.42
                             1198.59  1274.32  1398.39  1447.22  1499.74
                             1519.71  1542.17  1669.61  1709.96  1757.73
                             1762.59  1829.62  1885.06  1977.27  2026.01
                             2029.06  2079.95  2102.73  4151.22  4169.19
                             4208.10  4227.03  4270.03  5282.32  5334.21
                             5334.44

 Zero-point correction=                           0.113279 (Hartree/Particle)
 Thermal correction to Energy=                    0.121468
 Thermal correction to Enthalpy=                  0.122413
 Thermal correction to Gibbs Free Energy=         0.080591
 Sum of electronic and zero-point Energies=           -344.812082
 Sum of electronic and thermal Energies=              -344.803893
 Sum of electronic and thermal Enthalpies=            -344.802949
 Sum of electronic and thermal Free Energies=         -344.844770

                     E (Thermal)             CV                S
                      KCal/Mol        Cal/Mol-Kelvin    Cal/Mol-Kelvin
 Total                   76.223             27.334             88.021
 Electronic               0.000              0.000              0.000
 Translational            0.889              2.981             39.471
 Rotational               0.889              2.981             26.975
 Vibrational             74.445             21.373             21.575
 Vibration     1          0.594              1.981              5.283
 Vibration     2          0.604              1.949              3.445
 Vibration     3          0.637              1.842              2.144
 Vibration     4          0.640              1.832              2.082
 Vibration     5          0.641              1.830              2.070
 Vibration     6          0.663              1.762              1.729
 Vibration     7          0.695              1.668              1.399
 Vibration     8          0.759              1.489              0.996
 Vibration     9          0.814              1.348              0.778
 Vibration    10          0.883              1.188              0.592

 Optimization completed.
    -- Stationary point found.
 Normal termination of Gaussian 16 at Fri Jun  2 11:41:28 2023.
