 Gaussian 16, Revision C.02,
 Gaussian 16:  ES64L-G16RevC.02  7-Dec-2021

 ----------------------------------------------------------------------
 #p freq=raman scale=0.967 guess=read geom=allcheck b3lyp/6-311+G(d,p)
 int=grid=ultrafine EmpiricalDispersion=GD3BJ SCRF=(Solvent=ethanol) sc
 f=(xqc,intrep,maxconventionalcycle=350) nosymm
 ----------------------------------------------------------------------

 Structure from the checkpoint file:  "/scratch1/svicchi/G09-1909958.pbs02/02-freq/PyrEtOH-CO2_binding-site_index-5-freq.chk"
 --------------------------------
 PyrEtOH-CO2_binding-site_index-5
 --------------------------------
 Charge = -1 Multiplicity = 1

                          Input orientation:
 ---------------------------------------------------------------------
 Center     Atomic      Atomic             Coordinates (Angstroms)
 Number     Number       Type             X           Y           Z
 ---------------------------------------------------------------------
      1          6           0       -0.714316    0.820791    0.002598
      2          6           0       -1.359389   -0.288653   -0.481727
      3          6           0       -0.354690   -1.259686   -0.779276
      4          1           0       -2.426302   -0.396806   -0.607056
      5          6           0        0.876471   -0.714522   -0.482227
      6          7           0        0.649478    0.576379   -0.000801
      7          1           0       -1.084661    1.769871    0.347327
      8          6           0        2.213399   -1.381364   -0.605385
      9          1           0       -0.510066   -2.260955   -1.154367
     10          1           0        2.056219   -2.459445   -0.500850
     11          1           0        2.873396   -1.070523    0.206422
     12          6           0        2.924131   -1.162417   -1.949327
     13          1           0        2.299122   -1.556694   -2.758066
     14          1           0        3.860101   -1.738264   -1.942828
     15          8           0        3.197682    0.205300   -2.236553
     16          1           0        3.128092    0.700581   -1.388463
     17          6           0        1.618870    1.573024    0.475829
     18          8           0        1.141602    2.491422    1.157508
     19          8           0        2.811791    1.384773    0.132627
 ---------------------------------------------------------------------

 SCF Done:  E(RB3LYP) =  -552.351586410     A.U. after    3 cycles

 Alpha  occ. eigenvalues --  -19.09541 -19.07553 -19.07090 -14.34936 -10.29371
 Alpha  occ. eigenvalues --  -10.20538 -10.19252 -10.17990 -10.16857 -10.15236
 Alpha  occ. eigenvalues --  -10.14945  -1.05623  -0.99928  -0.96031  -0.95681
 Alpha  occ. eigenvalues --   -0.77733  -0.76603  -0.69446  -0.62171  -0.60353
 Alpha  occ. eigenvalues --   -0.56627  -0.51890  -0.48561  -0.46732  -0.45183
 Alpha  occ. eigenvalues --   -0.44420  -0.43501  -0.42820  -0.42267  -0.39438
 Alpha  occ. eigenvalues --   -0.38306  -0.37478  -0.36804  -0.35067  -0.32182
 Alpha  occ. eigenvalues --   -0.27757  -0.26936  -0.26109  -0.25256  -0.23976
 Alpha  occ. eigenvalues --   -0.20720
 Alpha virt. eigenvalues --    0.00120   0.01167   0.02409   0.02986   0.03483
 Alpha virt. eigenvalues --    0.04532   0.04939   0.05563   0.05857   0.06132
 Alpha virt. eigenvalues --    0.07327   0.07846   0.08158   0.08627   0.09644

 Mulliken charges:
               1
     1  C    0.053317
     2  C   -0.440527
     3  C   -0.069061
     4  H    0.128907
     5  C    0.046198
     6  N   -0.024264
     7  H    0.146609
     8  C   -0.474100
     9  H    0.119815
    10  H    0.146319
    11  H    0.175897
    12  C   -0.252470
    13  H    0.134093
    14  H    0.128339
    15  O   -0.460348
    16  H    0.324635
    17  C    0.377395
    18  O   -0.514624
    19  O   -0.546131
 Sum of Mulliken charges =  -1.00000

 Dipole moment (field-independent basis, Debye):
    X=             -9.3422    Y=             -8.8914    Z=              0.3474  Tot=             12.9018
 Quadrupole moment (field-independent basis, Debye-Ang):
   XX=            -94.7844   YY=            -83.2970   ZZ=            -82.9477
   XY=            -18.9633   XZ=              6.6807   YZ=             -4.1526

  Exact polarizability:     160.351       0.134     147.809      -4.351      24.339     111.698
 Approx polarizability:     174.746      -0.997     163.720      -2.825      26.765     122.103

                      1                      2                      3
                      A                      A                      A
 Frequencies --     57.4437                75.1722               136.4000
 Red. masses --      6.6503                 8.2653                 4.4662
 Frc consts  --      0.0129                 0.0275                 0.0490
 IR Inten    --      2.4971                 9.1978                 4.1587
 Raman Activ --      1.6833                 3.4939                 4.0435

                      4                      5                      6
                      A                      A                      A
 Frequencies --    156.9906               217.2984               233.2711
 Red. masses --      2.9804                 5.9972                 7.2508
 Frc consts  --      0.0433                 0.1668                 0.2325
 IR Inten    --      4.2686                13.1022                19.1345
 Raman Activ --      3.0322                 0.1361                 0.3979

                      7                      8                      9
                      A                      A                      A
 Frequencies --    310.0496               346.7042               426.7492
 Red. masses --      5.0454                 2.9338                 7.9577
 Frc consts  --      0.2858                 0.2078                 0.8539
 IR Inten    --      9.8070                 6.5904                 5.4671
 Raman Activ --      2.8323                 3.1757                 5.1135

                     10                     11                     12
                      A                      A                      A
 Frequencies --    487.7486               564.0646               619.6491
 Red. masses --      2.3186                 4.7060                 3.5792
 Frc consts  --      0.3250                 0.8822                 0.8097
 IR Inten    --      0.6914                 2.4135                 4.8367
 Raman Activ --      2.5694                 1.1118                 4.1659

                     13                     14                     15
                      A                      A                      A
 Frequencies --    640.9180               695.7345               725.6880
 Red. masses --      3.9305                 2.2945                 1.3463
 Frc consts  --      0.9513                 0.6544                 0.4177
 IR Inten    --      7.3479                13.2955               150.0855
 Raman Activ --      7.3713                 9.4521                 9.2977

                     16                     17                     18
                      A                      A                      A
 Frequencies --    727.0748               784.8347               797.9860
 Red. masses --      1.1176                 3.3016                 2.7794
 Frc consts  --      0.3481                 1.1982                 1.0428
 IR Inten    --    181.4412                88.5716               152.5585
 Raman Activ --      2.1120                14.1401                12.8234

                     19                     20                     21
                      A                      A                      A
 Frequencies --    814.6915               857.2265               876.4632
 Red. masses --      4.1598                 2.3775                 1.3162
 Frc consts  --      1.6267                 1.0294                 0.5957
 IR Inten    --     76.1537                37.7684                 1.0898
 Raman Activ --      4.7444                 7.5692                 4.0232

                     22                     23                     24
                      A                      A                      A
 Frequencies --    908.1670               943.5774              1026.4981
 Red. masses --      4.5473                 2.4548                 1.3428
 Frc consts  --      2.2097                 1.2877                 0.8336
 IR Inten    --      1.8968                 2.3209                 4.9867
 Raman Activ --     15.5767                 6.8557                 2.7482

                     25                     26                     27
                      A                      A                      A
 Frequencies --   1049.8415              1067.8049              1082.6703
 Red. masses --      1.8564                 1.5935                 4.0905
 Frc consts  --      1.2055                 1.0705                 2.8250
 IR Inten    --     26.9340               117.4900                71.9218
 Raman Activ --      8.8290                15.5319                16.7852

                     28                     29                     30
                      A                      A                      A
 Frequencies --   1152.3576              1192.5811              1239.7163
 Red. masses --      2.5944                 1.7783                 1.8172
 Frc consts  --      2.0298                 1.4902                 1.6455
 IR Inten    --     90.1230               188.7226                68.7294
 Raman Activ --      3.5236                12.4621                33.9635

                     31                     32                     33
                      A                      A                      A
 Frequencies --   1257.7976              1273.5616              1304.6962
 Red. masses --      2.1297                 1.1904                 5.3423
 Frc consts  --      1.9851                 1.1376                 5.3579
 IR Inten    --    313.9727                21.1898               572.3340
 Raman Activ --     98.9974                15.6817                16.0372

                     34                     35                     36
                      A                      A                      A
 Frequencies --   1343.9407              1373.4295              1379.8160
 Red. masses --      2.4284                 1.7593                 1.3258
 Frc consts  --      2.5843                 1.9552                 1.4872
 IR Inten    --     21.0645                16.6807                20.1320
 Raman Activ --     25.6069                26.6809                11.0896

                     37                     38                     39
                      A                      A                      A
 Frequencies --   1438.5280              1457.2527              1489.7710
 Red. masses --      2.9415                 1.1319                 1.1570
 Frc consts  --      3.5863                 1.4162                 1.5130
 IR Inten    --      6.6382                63.1169                74.6252
 Raman Activ --     36.2482                30.3449                14.0941

                     40                     41                     42
                      A                      A                      A
 Frequencies --   1498.9293              1510.9383              1577.7669
 Red. masses --      4.3480                 1.1420                 5.3903
 Frc consts  --      5.7558                 1.5360                 7.9059
 IR Inten    --     17.7305                 2.8475                26.5660
 Raman Activ --    262.0728                33.2902                27.7752

                     43                     44                     45
                      A                      A                      A
 Frequencies --   1677.5223              2974.0606              3025.0439
 Red. masses --     11.6195                 1.0665                 1.0948
 Frc consts  --     19.2652                 5.5577                 5.9027
 IR Inten    --   1233.5341               197.0921                78.4681
 Raman Activ --     10.7696               449.2424               229.9168

                     46                     47                     48
                      A                      A                      A
 Frequencies --   3040.3890              3092.8371              3212.6899
 Red. masses --      1.0654                 1.0980                 1.0920
 Frc consts  --      5.8024                 6.1885                 6.6408
 IR Inten    --     69.9909                36.3937                16.2716
 Raman Activ --    398.6769               142.5998               183.2363

                     49                     50                     51
                      A                      A                      A
 Frequencies --   3229.6377              3279.6988              3362.9942
 Red. masses --      1.0979                 1.0995                 1.0719
 Frc consts  --      6.7472                 6.9678                 7.1428
 IR Inten    --     10.7776                 2.7392              1168.0423
 Raman Activ --    277.4100               172.5950               215.9285

 - Thermochemistry -
 -------------------
 Temperature   298.150 Kelvin.  Pressure   1.00000 Atm.
 Thermochemistry will use frequencies scaled by 0.9670.

 Molecular mass:   154.05042 amu.
 Principal axes and moments of inertia in atomic units:
                           1         2         3
     Eigenvalues --  1263.149621566.738542540.83337
           X            0.77859   0.57931   0.24124
           Y           -0.39645   0.75208  -0.52651
           Z           -0.48644   0.31429   0.81523
 This molecule is an asymmetric top.
 Rotational symmetry number  1.
 Warning -- assumption of classical behavior for rotation
           may cause significant error
 Rotational temperatures (Kelvin)      0.06857     0.05528     0.03409
 Rotational constants (GHZ):           1.42876     1.15191     0.71029
 Zero-point vibrational energy     370268.9 (Joules/Mol)
                                   88.49639 (Kcal/Mol)
 Warning -- explicit consideration of  13 degrees of freedom as
           vibrations may cause significant error
 Vibrational temperatures:     79.92   104.59   189.77   218.42   302.33
          (Kelvin)            324.55   431.37   482.37   593.74   678.60
                              784.78   862.12   891.71   967.97  1009.65
                             1011.58  1091.94  1110.24  1133.48  1192.66
                             1219.42  1263.53  1312.80  1428.16  1460.64
                             1485.63  1506.32  1603.27  1659.23  1724.81
                             1749.97  1771.90  1815.22  1869.82  1910.85
                             1919.73  2001.42  2027.47  2072.71  2085.46
                             2102.16  2195.14  2333.93  4137.80  4208.74
                             4230.09  4303.06  4469.81  4493.39  4563.04
                             4678.92

 Zero-point correction=                           0.141028 (Hartree/Particle)
 Thermal correction to Energy=                    0.150863
 Thermal correction to Enthalpy=                  0.151808
 Thermal correction to Gibbs Free Energy=         0.105246
 Sum of electronic and zero-point Energies=           -552.210558
 Sum of electronic and thermal Energies=              -552.200723
 Sum of electronic and thermal Enthalpies=            -552.199779
 Sum of electronic and thermal Free Energies=         -552.246340

                     E (Thermal)             CV                S
                      KCal/Mol        Cal/Mol-Kelvin    Cal/Mol-Kelvin
 Total                   94.668             37.066             97.996
 Electronic               0.000              0.000              0.000
 Translational            0.889              2.981             41.006
 Rotational               0.889              2.981             29.998
 Vibrational             92.891             31.104             26.992
 Vibration     1          0.596              1.975              4.609
 Vibration     2          0.599              1.967              4.079
 Vibration     3          0.612              1.921              2.918
 Vibration     4          0.619              1.901              2.649
 Vibration     5          0.642              1.825              2.043
 Vibration     6          0.650              1.802              1.914
 Vibration     7          0.692              1.674              1.418
 Vibration     8          0.716              1.605              1.235
 Vibration     9          0.776              1.443              0.917
 Vibration    10          0.829              1.313              0.733
 Vibration    11          0.901              1.150              0.554
 Vibration    12          0.957              1.033              0.451
 Vibration    13          0.980              0.990              0.417

 Optimization completed.
    -- Stationary point found.
 Normal termination of Gaussian 16 at Mon Jan 22 21:37:36 2024.
