 Gaussian 16, Revision C.01,
 Gaussian 16:  ES64L-G16RevC.01  3-Jul-2019

 ----------------------------------------------------------------------
 #p freq=raman scale=0.967 pop=(nbo,full,hirshfeld) guess=read geom=all
 check b3lyp/6-311+G(d,p) int=grid=ultrafine EmpiricalDispersion=GD3BJ
 SCRF=(Solvent=ethanol) scf=(xqc,intrep,maxconventionalcycle=350) nosym
 m
 ----------------------------------------------------------------------

 Structure from the checkpoint file:  "/scratch1/svicchi/G09-659873.pbs02/02-freq/MEA-isolated-freq.chk"
 ----------------
 MEA-isolated.gjf
 ----------------
 Charge =  0 Multiplicity = 1

                          Input orientation:
 ---------------------------------------------------------------------
 Center     Atomic      Atomic             Coordinates (Angstroms)
 Number     Number       Type             X           Y           Z
 ---------------------------------------------------------------------
      1          8           0        2.140810   -0.808116    0.093118
      2          6           0        3.093718    0.261906    0.078183
      3          6           0        4.479592   -0.346307   -0.069311
      4          1           0        3.042300    0.842678    1.005760
      5          1           0        2.894056    0.939865   -0.761834
      6          7           0        5.486876    0.721035   -0.135450
      7          1           0        4.481999   -1.007575   -0.947173
      8          1           0        4.690472   -0.965979    0.806284
      9          1           0        1.261825   -0.432985    0.207882
     10          1           0        5.435938    1.197500   -1.031346
     11          1           0        6.419166    0.325567   -0.074724
 ---------------------------------------------------------------------

 SCF Done:  E(RB3LYP) =  -210.477897797     A.U. after    1 cycles

 Alpha  occ. eigenvalues --  -19.13086 -14.30069 -10.21707 -10.19488  -1.02908
 Alpha  occ. eigenvalues --   -0.88845  -0.72824  -0.60758  -0.52693  -0.50186
 Alpha  occ. eigenvalues --   -0.46362  -0.43083  -0.40489  -0.37337  -0.34374
 Alpha  occ. eigenvalues --   -0.28715  -0.25490
 Alpha virt. eigenvalues --    0.00569   0.00669   0.03239   0.04101   0.06498
 Alpha virt. eigenvalues --    0.07036   0.07780   0.10374   0.12124   0.12626
 Alpha virt. eigenvalues --    0.13689   0.16413   0.17726   0.17877   0.17950

 Mulliken charges:
               1
     1  O   -0.405868
     2  C   -0.196496
     3  C   -0.210627
     4  H    0.147328
     5  H    0.136490
     6  N   -0.520689
     7  H    0.137976
     8  H    0.146788
     9  H    0.279614
    10  H    0.235908
    11  H    0.249576
 Sum of Mulliken charges =  -0.00000

 Dipole moment (field-independent basis, Debye):
    X=              0.0085    Y=              0.9480    Z=             -1.1446  Tot=              1.4862
 Quadrupole moment (field-independent basis, Debye-Ang):
   XX=            -19.2977   YY=            -30.4408   ZZ=            -25.7821
   XY=             -1.1132   XZ=             -7.1860   YZ=             -2.2427

  Exact polarizability:      50.961       2.572      49.763      -0.423       0.877      45.097
 Approx polarizability:      51.109       1.552      51.858       0.092       0.027      48.139

 Summary of Natural Population Analysis:

                                       Natural Population
                Natural  -----------------------------------------------
    Atom  No    Charge         Core      Valence    Rydberg      Total
 -----------------------------------------------------------------------
      O    1   -0.76969      1.99979     6.75674    0.01317     8.76969
      C    2   -0.03251      1.99923     4.01106    0.02223     6.03251
      C    3   -0.20444      1.99933     4.18471    0.02040     6.20444
      H    4    0.16417      0.00000     0.83310    0.00274     0.83583
      H    5    0.15846      0.00000     0.83912    0.00241     0.84154
      N    6   -0.87293      1.99953     5.85136    0.02204     7.87293
      H    7    0.16837      0.00000     0.82877    0.00286     0.83163
      H    8    0.18859      0.00000     0.80918    0.00223     0.81141
      H    9    0.47630      0.00000     0.51957    0.00413     0.52370
      H   10    0.35814      0.00000     0.63911    0.00274     0.64186
      H   11    0.36554      0.00000     0.63220    0.00226     0.63446
 =======================================================================
   * Total *    0.00000      7.99788    25.90492    0.09720    34.00000

                      1                      2                      3
                      A                      A                      A
 Frequencies --    124.7919               214.1761               224.8091
 Red. masses --      2.8860                 1.0632                 1.1023
 Frc consts  --      0.0265                 0.0287                 0.0328
 IR Inten    --     39.2300               200.6581                34.1022
 Raman Activ --      0.1525                 1.7204                 0.3184

                      4                      5                      6
                      A                      A                      A
 Frequencies --    295.2460               475.4312               811.7115
 Red. masses --      2.9585                 5.3655                 1.1027
 Frc consts  --      0.1519                 0.7146                 0.4281
 IR Inten    --     35.5697                 2.6993                35.9062
 Raman Activ --      0.1045                 3.5728                 1.0305

                      7                      8                      9
                      A                      A                      A
 Frequencies --    867.8239               963.2662              1035.9856
 Red. masses --      1.2561                 1.9903                 6.4123
 Frc consts  --      0.5574                 1.0881                 4.0548
 IR Inten    --    171.7153                18.7275               181.6804
 Raman Activ --      8.1663                10.3497                 3.1398

                     10                     11                     12
                      A                      A                      A
 Frequencies --   1074.3598              1099.5543              1197.4009
 Red. masses --      2.6787                 1.4533                 1.3061
 Frc consts  --      1.8217                 1.0352                 1.1033
 IR Inten    --      0.2920                17.0792                 8.9353
 Raman Activ --     16.6196                 1.5303                 3.1244

                     13                     14                     15
                      A                      A                      A
 Frequencies --   1234.1614              1299.3592              1323.2537
 Red. masses --      1.1720                 1.2457                 1.1183
 Frc consts  --      1.0518                 1.2391                 1.1537
 IR Inten    --     45.1415                 7.4100                 2.1359
 Raman Activ --      3.0418                 9.5198                22.5438

                     16                     17                     18
                      A                      A                      A
 Frequencies --   1394.9578              1457.3548              1502.6778
 Red. masses --      1.3268                 1.5309                 1.0808
 Frc consts  --      1.5212                 1.9157                 1.4379
 IR Inten    --      3.6779                 1.1503                 0.3846
 Raman Activ --      0.5551                 5.1604                30.7995

                     19                     20                     21
                      A                      A                      A
 Frequencies --   1521.4819              1651.2901              2977.2173
 Red. masses --      1.0871                 1.0881                 1.0710
 Frc consts  --      1.4827                 1.7481                 5.5934
 IR Inten    --      6.1043                50.5572                99.0836
 Raman Activ --      0.7044                 5.1409               308.2203

                     22                     23                     24
                      A                      A                      A
 Frequencies --   2991.3944              3034.1025              3068.0041
 Red. masses --      1.0595                 1.0990                 1.0957
 Frc consts  --      5.5860                 5.9611                 6.0767
 IR Inten    --     77.4139                62.7665                77.8542
 Raman Activ --    274.9700               180.7983               103.4664

                     25                     26                     27
                      A                      A                      A
 Frequencies --   3499.0674              3573.7430              3836.5116
 Red. masses --      1.0512                 1.0920                 1.0669
 Frc consts  --      7.5830                 8.2174                 9.2523
 IR Inten    --      0.4966                 6.1081                68.5126
 Raman Activ --    201.5211               109.4503               146.9682

 - Thermochemistry -
 -------------------
 Temperature   298.150 Kelvin.  Pressure   1.00000 Atm.
 Thermochemistry will use frequencies scaled by 0.9670.

 Molecular mass:    61.05276 amu.
 Principal axes and moments of inertia in atomic units:
                           1         2         3
     Eigenvalues --    62.49607 466.31835 500.30546
           X            0.94363  -0.32174   0.07782
           Y            0.32101   0.94682   0.02204
           Z           -0.08077   0.00419   0.99672
 This molecule is an asymmetric top.
 Rotational symmetry number  1.
 Rotational temperatures (Kelvin)      1.38591     0.18574     0.17312
 Rotational constants (GHZ):          28.87767     3.87019     3.60728
 Zero-point vibrational energy     247258.6 (Joules/Mol)
                                   59.09623 (Kcal/Mol)
 Warning -- explicit consideration of   5 degrees of freedom as
           vibrations may cause significant error
 Vibrational temperatures:    173.62   297.98   312.78   410.77   661.47
          (Kelvin)           1129.33  1207.40  1340.19  1441.36  1494.75
                             1529.81  1665.94  1717.09  1807.79  1841.04
                             1940.80  2027.61  2090.67  2116.83  2297.44
                             4142.19  4161.92  4221.34  4268.51  4868.24
                             4972.14  5337.73

 Zero-point correction=                           0.094176 (Hartree/Particle)
 Thermal correction to Energy=                    0.099871
 Thermal correction to Enthalpy=                  0.100816
 Thermal correction to Gibbs Free Energy=         0.066206
 Sum of electronic and zero-point Energies=           -210.383722
 Sum of electronic and thermal Energies=              -210.378026
 Sum of electronic and thermal Enthalpies=            -210.377082
 Sum of electronic and thermal Free Energies=         -210.411692

                     E (Thermal)             CV                S
                      KCal/Mol        Cal/Mol-Kelvin    Cal/Mol-Kelvin
 Total                   62.670             18.551             72.842
 Electronic               0.000              0.000              0.000
 Translational            0.889              2.981             38.247
 Rotational               0.889              2.981             24.193
 Vibrational             60.893             12.590             10.402
 Vibration     1          0.609              1.932              3.090
 Vibration     2          0.641              1.830              2.069
 Vibration     3          0.646              1.815              1.981
 Vibration     4          0.683              1.701              1.500
 Vibration     5          0.818              1.339              0.767

 Optimization completed.
    -- Stationary point found.
 Normal termination of Gaussian 16 at Fri Jun  2 11:23:08 2023.
