 Gaussian 16, Revision C.01,
 Gaussian 16:  ES64L-G16RevC.01  3-Jul-2019

 ----------------------------------------------------------------------
 #p freq=raman scale=0.967 pop=(nbo,full,hirshfeld) guess=read geom=all
 check b3lyp/6-311+G(d,p) int=grid=ultrafine EmpiricalDispersion=GD3BJ
 SCRF=(Solvent=ethanol) scf=(xqc,intrep,maxconventionalcycle=350) nosym
 m
 ----------------------------------------------------------------------

 Structure from the checkpoint file:  "/scratch1/svicchi/G09-659882.pbs02/02-freq/EDA-isolated-freq.chk"
 ----------------
 EDA-isolated.gjf
 ----------------
 Charge =  0 Multiplicity = 1

                          Input orientation:
 ---------------------------------------------------------------------
 Center     Atomic      Atomic             Coordinates (Angstroms)
 Number     Number       Type             X           Y           Z
 ---------------------------------------------------------------------
      1          7           0        2.051095   -0.797749    0.100682
      2          6           0        3.115692    0.211302    0.058797
      3          6           0        4.534931   -0.348185   -0.075812
      4          1           0        3.056578    0.817222    0.967517
      5          1           0        2.912949    0.883645   -0.782088
      6          7           0        5.520320    0.742498   -0.112956
      7          1           0        4.575168   -0.999827   -0.962473
      8          1           0        4.754906   -0.976205    0.793436
      9          1           0        5.426980    1.266919   -0.978557
     10          1           0        6.463087    0.366112   -0.108974
     11          1           0        2.198441   -1.431526    0.881282
     12          1           0        2.072172   -1.368134   -0.740074
 ---------------------------------------------------------------------

 SCF Done:  E(RB3LYP) =  -190.606499477     A.U. after    1 cycles

 Alpha  occ. eigenvalues --  -14.29823 -14.29813 -10.19137 -10.19087  -0.89722
 Alpha  occ. eigenvalues --   -0.87214  -0.70455  -0.60713  -0.50971  -0.48853
 Alpha  occ. eigenvalues --   -0.45972  -0.41798  -0.40930  -0.37798  -0.34680
 Alpha  occ. eigenvalues --   -0.25867  -0.24652
 Alpha virt. eigenvalues --    0.00460   0.01104   0.03169   0.03882   0.06680
 Alpha virt. eigenvalues --    0.07441   0.07789   0.09267   0.11001   0.11961
 Alpha virt. eigenvalues --    0.12133   0.14892   0.15642   0.17249   0.17664

 Mulliken charges:
               1
     1  N   -0.520827
     2  C   -0.204993
     3  C   -0.260711
     4  H    0.144669
     5  H    0.134912
     6  N   -0.519697
     7  H    0.129016
     8  H    0.140311
     9  H    0.233023
    10  H    0.246132
    11  H    0.239443
    12  H    0.238722
 Sum of Mulliken charges =   0.00000

 Dipole moment (field-independent basis, Debye):
    X=              1.9187    Y=             -1.8730    Z=             -1.5640  Tot=              3.1042
 Quadrupole moment (field-independent basis, Debye-Ang):
   XX=            -16.8309   YY=            -26.3780   ZZ=            -24.9501
   XY=             -7.7008   XZ=             -7.5835   YZ=             -2.5421

  Exact polarizability:      59.317       2.901      57.038      -0.482       1.063      51.595
 Approx polarizability:      57.585       1.584      59.225       0.304       0.111      56.593

 Summary of Natural Population Analysis:

                                       Natural Population
                Natural  -----------------------------------------------
    Atom  No    Charge         Core      Valence    Rydberg      Total
 -----------------------------------------------------------------------
      N    1   -0.86896      1.99957     5.84605    0.02335     7.86896
      C    2   -0.19626      1.99932     4.17475    0.02218     6.19626
      C    3   -0.20062      1.99931     4.18225    0.01906     6.20062
      H    4    0.18558      0.00000     0.81185    0.00257     0.81442
      H    5    0.18048      0.00000     0.81737    0.00215     0.81952
      N    6   -0.87501      1.99954     5.85302    0.02245     7.87501
      H    7    0.16062      0.00000     0.83637    0.00301     0.83938
      H    8    0.18229      0.00000     0.81537    0.00233     0.81771
      H    9    0.35630      0.00000     0.64085    0.00285     0.64370
      H   10    0.36315      0.00000     0.63448    0.00237     0.63685
      H   11    0.35631      0.00000     0.64097    0.00273     0.64369
      H   12    0.35611      0.00000     0.64098    0.00291     0.64389
 =======================================================================
   * Total *   -0.00000      7.99774    25.89431    0.10796    34.00000

                      1                      2                      3
                      A                      A                      A
 Frequencies --    137.5032               230.4658               283.5048
 Red. masses --      2.3142                 1.1085                 1.1530
 Frc consts  --      0.0258                 0.0347                 0.0546
 IR Inten    --      3.5370                39.7913                85.3605
 Raman Activ --      0.0953                 0.4026                 0.2195

                      4                      5                      6
                      A                      A                      A
 Frequencies --    291.9212               465.3325               783.1419
 Red. masses --      2.3426                 3.6632                 1.0945
 Frc consts  --      0.1176                 0.4673                 0.3955
 IR Inten    --     25.0098                20.0296                13.8892
 Raman Activ --      0.3820                 5.5307                 0.3674

                      7                      8                      9
                      A                      A                      A
 Frequencies --    853.7068               869.8689               971.6448
 Red. masses --      1.3919                 1.4096                 1.4577
 Frc consts  --      0.5977                 0.6284                 0.8108
 IR Inten    --    235.6212               166.6516                40.9945
 Raman Activ --      5.4914                 5.8496                12.1778

                     10                     11                     12
                      A                      A                      A
 Frequencies --   1017.2513              1064.2801              1087.4688
 Red. masses --      1.6997                 2.5989                 2.8517
 Frc consts  --      1.0363                 1.7344                 1.9870
 IR Inten    --     41.2714                18.6961                 4.3331
 Raman Activ --      7.3174                 3.2565                16.0154

                     13                     14                     15
                      A                      A                      A
 Frequencies --   1148.3976              1268.7633              1327.5036
 Red. masses --      1.4534                 1.4266                 1.1374
 Frc consts  --      1.1293                 1.3531                 1.1810
 IR Inten    --      5.3697                 7.1416                 6.5198
 Raman Activ --      2.1668                 1.2564                15.1539

                     16                     17                     18
                      A                      A                      A
 Frequencies --   1361.3162              1384.6009              1421.3261
 Red. masses --      1.2452                 1.1979                 1.4236
 Frc consts  --      1.3596                 1.3531                 1.6944
 IR Inten    --      7.8514                 1.4755                 4.0510
 Raman Activ --      7.2138                 8.4025                 3.8470

                     19                     20                     21
                      A                      A                      A
 Frequencies --   1484.2010              1508.4073              1647.3097
 Red. masses --      1.0808                 1.0894                 1.0856
 Frc consts  --      1.4028                 1.4603                 1.7357
 IR Inten    --      1.1974                 2.7472                45.4118
 Raman Activ --     27.6316                 3.9875                 6.2816

                     22                     23                     24
                      A                      A                      A
 Frequencies --   1651.7629              2953.1978              3020.4126
 Red. masses --      1.0905                 1.0714                 1.0628
 Frc consts  --      1.7530                 5.5056                 5.7129
 IR Inten    --     49.6129               120.9537                48.6966
 Raman Activ --      4.4945               313.6570               308.8308

                     25                     26                     27
                      A                      A                      A
 Frequencies --   3041.5808              3068.1800              3486.9103
 Red. masses --      1.0869                 1.1046                 1.0493
 Frc consts  --      5.9243                 6.1264                 7.5171
 IR Inten    --     45.2995                90.2128                 0.3366
 Raman Activ --    182.7836                75.1323               198.2921

                     28                     29                     30
                      A                      A                      A
 Frequencies --   3492.4873              3559.4550              3565.9035
 Red. masses --      1.0507                 1.0931                 1.0923
 Frc consts  --      7.5509                 8.1598                 8.1834
 IR Inten    --      0.0664                 2.8222                 4.0202
 Raman Activ --    239.0937                87.7051               127.9843

 - Thermochemistry -
 -------------------
 Temperature   298.150 Kelvin.  Pressure   1.00000 Atm.
 Thermochemistry will use frequencies scaled by 0.9670.

 Molecular mass:    60.06875 amu.
 Principal axes and moments of inertia in atomic units:
                           1         2         3
     Eigenvalues --    67.46741 479.51679 509.89124
           X            0.93543  -0.34751   0.06482
           Y            0.34602   0.93764   0.03321
           Z           -0.07231  -0.00864   0.99734
 This molecule is an asymmetric top.
 Rotational symmetry number  1.
 Rotational temperatures (Kelvin)      1.28379     0.18063     0.16987
 Rotational constants (GHZ):          26.74982     3.76367     3.53946
 Zero-point vibrational energy     280219.4 (Joules/Mol)
                                   66.97405 (Kcal/Mol)
 Warning -- explicit consideration of   5 degrees of freedom as
           vibrations may cause significant error
 Vibrational temperatures:    191.31   320.65   394.44   406.15   647.42
          (Kelvin)           1089.58  1187.76  1210.25  1351.85  1415.30
                             1480.73  1512.99  1597.76  1765.23  1846.95
                             1894.00  1926.39  1977.49  2064.96  2098.64
                             2291.90  2298.09  4108.78  4202.29  4231.74
                             4268.75  4851.33  4859.09  4952.26  4961.23

 Zero-point correction=                           0.106730 (Hartree/Particle)
 Thermal correction to Energy=                    0.112399
 Thermal correction to Enthalpy=                  0.113343
 Thermal correction to Gibbs Free Energy=         0.078913
 Sum of electronic and zero-point Energies=           -190.499770
 Sum of electronic and thermal Energies=              -190.494100
 Sum of electronic and thermal Enthalpies=            -190.493156
 Sum of electronic and thermal Free Energies=         -190.527587

                     E (Thermal)             CV                S
                      KCal/Mol        Cal/Mol-Kelvin    Cal/Mol-Kelvin
 Total                   70.531             19.199             72.465
 Electronic               0.000              0.000              0.000
 Translational            0.889              2.981             38.199
 Rotational               0.889              2.981             24.315
 Vibrational             68.754             13.237              9.951
 Vibration     1          0.613              1.920              2.903
 Vibration     2          0.649              1.806              1.936
 Vibration     3          0.676              1.721              1.570
 Vibration     4          0.681              1.706              1.520
 Vibration     5          0.809              1.361              0.796

 Optimization completed.
    -- Stationary point found.
 Normal termination of Gaussian 16 at Fri Jun  2 11:21:43 2023.
