 Gaussian 16, Revision C.01,
 Gaussian 16:  ES64L-G16RevC.01  3-Jul-2019

 ----------------------------------------------------------------------
 #p freq=raman scale=0.967 pop=(nbo,full,hirshfeld) guess=read geom=all
 check b3lyp/6-311+G(d,p) int=grid=ultrafine EmpiricalDispersion=GD3BJ
 SCRF=(Solvent=ethanol) scf=(xqc,intrep,maxconventionalcycle=350) nosym
 m
 ----------------------------------------------------------------------

 Structure from the checkpoint file:  "/scratch1/svicchi/G09-659879.pbs02/02-freq/MEA-H_dissociation-site_index-5-freq.chk"
 -----------------------------------
 MEA-H_dissociation-site_index-5.gjf
 -----------------------------------
 Charge = -1 Multiplicity = 1

                          Input orientation:
 ---------------------------------------------------------------------
 Center     Atomic      Atomic             Coordinates (Angstroms)
 Number     Number       Type             X           Y           Z
 ---------------------------------------------------------------------
      1          8           0        2.144510   -0.752025    0.231630
      2          6           0        3.193824    0.232632    0.060123
      3          6           0        4.535260   -0.460904   -0.207959
      4          1           0        3.275828    0.847729    0.966809
      5          1           0        2.953261    0.895001   -0.780641
      6          7           0        5.651932    0.446241   -0.406867
      7          1           0        4.397415   -1.073486   -1.113699
      8          1           0        4.667095   -1.194114    0.619801
      9          1           0        1.310354   -0.288454    0.359271
     10          1           0        5.829911    0.892745    0.497474
 ---------------------------------------------------------------------

 SCF Done:  E(RB3LYP) =  -209.930951755     A.U. after    1 cycles

 Alpha  occ. eigenvalues --  -19.11283 -14.19092 -10.18743 -10.14895  -1.00564
 Alpha  occ. eigenvalues --   -0.78116  -0.66467  -0.55587  -0.49213  -0.44696
 Alpha  occ. eigenvalues --   -0.38981  -0.36949  -0.32387  -0.32088  -0.26842
 Alpha  occ. eigenvalues --   -0.20276  -0.13671
 Alpha virt. eigenvalues --    0.01340   0.02296   0.03859   0.04915   0.07630
 Alpha virt. eigenvalues --    0.08332   0.08466   0.11694   0.13056   0.14420
 Alpha virt. eigenvalues --    0.15503   0.18527   0.19350   0.19727   0.20786

 Mulliken charges:
               1
     1  O   -0.427510
     2  C   -0.289731
     3  C   -0.073891
     4  H    0.123407
     5  H    0.131009
     6  N   -1.037783
     7  H    0.094886
     8  H    0.068500
     9  H    0.266445
    10  H    0.144669
 Sum of Mulliken charges =  -1.00000

 Dipole moment (field-independent basis, Debye):
    X=            -27.1574    Y=              0.0498    Z=              3.4135  Tot=             27.3711
 Quadrupole moment (field-independent basis, Debye-Ang):
   XX=           -183.7677   YY=            -35.2626   ZZ=            -31.9501
   XY=             -6.7412   XZ=             19.8274   YZ=              3.4566

  Exact polarizability:      79.550      -3.581      76.965      -2.854      -5.093      60.040
 Approx polarizability:      72.168      -0.904      72.310      -1.458      -2.673      60.414

 Summary of Natural Population Analysis:

                                       Natural Population
                Natural  -----------------------------------------------
    Atom  No    Charge         Core      Valence    Rydberg      Total
 -----------------------------------------------------------------------
      O    1   -0.79128      1.99979     6.77678    0.01471     8.79128
      C    2   -0.04459      1.99919     4.01827    0.02712     6.04459
      C    3   -0.21255      1.99937     4.18646    0.02672     6.21255
      H    4    0.14011      0.00000     0.85544    0.00446     0.85989
      H    5    0.14407      0.00000     0.85063    0.00530     0.85593
      N    6   -1.24385      1.99965     6.20687    0.03733     8.24385
      H    7    0.14308      0.00000     0.85287    0.00405     0.85692
      H    8    0.11439      0.00000     0.88059    0.00502     0.88561
      H    9    0.46697      0.00000     0.52821    0.00481     0.53303
      H   10    0.28365      0.00000     0.71167    0.00468     0.71635
 =======================================================================
   * Total *   -1.00000      7.99801    25.86780    0.13420    34.00000

                      1                      2                      3
                      A                      A                      A
 Frequencies --    147.7103               211.2595               282.6177
 Red. masses --      2.9442                 1.0762                 2.0606
 Frc consts  --      0.0378                 0.0283                 0.0970
 IR Inten    --     75.0715               136.9787                13.7519
 Raman Activ --      3.3791                 3.7530                26.7566

                      4                      5                      6
                      A                      A                      A
 Frequencies --    344.6927               474.7205               799.4591
 Red. masses --      1.4527                 5.8931                 1.1135
 Frc consts  --      0.1017                 0.7825                 0.4193
 IR Inten    --    201.1921                17.8723                 4.8819
 Raman Activ --     98.1807                10.9708                 1.5238

                      7                      8                      9
                      A                      A                      A
 Frequencies --    960.9753               974.3629              1023.9020
 Red. masses --      3.7173                 4.1467                 2.8470
 Frc consts  --      2.0226                 2.3195                 1.7586
 IR Inten    --     38.1318               249.8193               133.1731
 Raman Activ --     62.0038                14.5566                16.2239

                     10                     11                     12
                      A                      A                      A
 Frequencies --   1045.9740              1198.8663              1207.0446
 Red. masses --      1.6695                 1.2242                 1.1875
 Frc consts  --      1.0762                 1.0367                 1.0194
 IR Inten    --     14.4249                 9.3621                54.8138
 Raman Activ --     15.8114                11.5571                 4.7676

                     13                     14                     15
                      A                      A                      A
 Frequencies --   1298.1713              1324.4997              1350.9289
 Red. masses --      1.1769                 1.2206                 1.1916
 Frc consts  --      1.1686                 1.2616                 1.2813
 IR Inten    --      2.5358                20.2394                15.4899
 Raman Activ --     35.4151                25.8410                11.4534

                     16                     17                     18
                      A                      A                      A
 Frequencies --   1406.7610              1470.9488              1500.4912
 Red. masses --      1.3723                 1.0906                 1.0881
 Frc consts  --      1.6000                 1.3903                 1.4434
 IR Inten    --      0.6806                 4.7782                 5.4699
 Raman Activ --     21.8406                58.0937                 9.1656

                     19                     20                     21
                      A                      A                      A
 Frequencies --   2778.4395              2936.8011              2974.9057
 Red. masses --      1.0726                 1.0799                 1.0556
 Frc consts  --      4.8786                 5.4875                 5.5045
 IR Inten    --    417.4522               128.3558               125.3635
 Raman Activ --    895.0112               343.2584               229.4706

                     22                     23                     24
                      A                      A                      A
 Frequencies --   3019.4848              3371.2357              3824.8871
 Red. masses --      1.1081                 1.0723                 1.0669
 Frc consts  --      5.9522                 7.1803                 9.1964
 IR Inten    --    138.7133               117.3820                36.4275
 Raman Activ --    125.9812               358.4480               308.7975

 - Thermochemistry -
 -------------------
 Temperature   298.150 Kelvin.  Pressure   1.00000 Atm.
 Thermochemistry will use frequencies scaled by 0.9670.

 Molecular mass:    60.04494 amu.
 Principal axes and moments of inertia in atomic units:
                           1         2         3
     Eigenvalues --    59.25542 459.19812 490.52978
           X            0.95845  -0.21820   0.18376
           Y            0.23601   0.96836  -0.08113
           Z           -0.16024   0.12113   0.97962
 This molecule is an asymmetric top.
 Rotational symmetry number  1.
 Rotational temperatures (Kelvin)      1.46170     0.18862     0.17657
 Rotational constants (GHZ):          30.45698     3.93020     3.67917
 Zero-point vibrational energy     207812.1 (Joules/Mol)
                                   49.66830 (Kcal/Mol)
 Warning -- explicit consideration of   5 degrees of freedom as
           vibrations may cause significant error
 Vibrational temperatures:    205.51   293.92   393.21   479.57   660.48
          (Kelvin)           1112.29  1337.00  1355.63  1424.55  1455.26
                             1667.98  1679.36  1806.14  1842.77  1879.54
                             1957.22  2046.53  2087.63  3865.64  4085.96
                             4138.98  4201.00  4690.39  5321.56

 Zero-point correction=                           0.079151 (Hartree/Particle)
 Thermal correction to Energy=                    0.084636
 Thermal correction to Enthalpy=                  0.085580
 Thermal correction to Gibbs Free Energy=         0.051539
 Sum of electronic and zero-point Energies=           -209.851800
 Sum of electronic and thermal Energies=              -209.846316
 Sum of electronic and thermal Enthalpies=            -209.845371
 Sum of electronic and thermal Free Energies=         -209.879413

                     E (Thermal)             CV                S
                      KCal/Mol        Cal/Mol-Kelvin    Cal/Mol-Kelvin
 Total                   53.110             17.978             71.647
 Electronic               0.000              0.000              0.000
 Translational            0.889              2.981             38.198
 Rotational               0.889              2.981             24.105
 Vibrational             51.333             12.016              9.345
 Vibration     1          0.616              1.910              2.766
 Vibration     2          0.640              1.834              2.094
 Vibration     3          0.676              1.723              1.575
 Vibration     4          0.715              1.609              1.244
 Vibration     5          0.817              1.341              0.769

 Normal termination of Gaussian 16 at Fri Jun  2 11:28:20 2023.
