 Gaussian 16, Revision C.01,
 Gaussian 16:  ES64L-G16RevC.01  3-Jul-2019

 ----------------------------------------------------------------------
 #p freq=raman scale=0.967 pop=(nbo,full,hirshfeld) guess=read geom=all
 check b3lyp/6-311+G(d,p) int=grid=ultrafine EmpiricalDispersion=GD3BJ
 SCRF=(Solvent=ethanol) scf=(xqc,intrep,maxconventionalcycle=350) nosym
 m
 ----------------------------------------------------------------------

 Structure from the checkpoint file:  "/scratch1/svicchi/G09-659727.pbs02/02-freq/EMIM-H_dissociation-site_index-2-freq.chk"
 ------------------------------------
 EMIM-H_dissociation-site_index-2.gjf
 ------------------------------------
 Charge =  0 Multiplicity = 1

                          Input orientation:
 ---------------------------------------------------------------------
 Center     Atomic      Atomic             Coordinates (Angstroms)
 Number     Number       Type             X           Y           Z
 ---------------------------------------------------------------------
      1          6           0        1.097476   -0.294950    0.338535
      2          7           0        0.653169   -1.597782   -0.155872
      3          6           0        0.972105   -2.783628    0.441133
      4          7           0        0.398466   -3.699683   -0.393198
      5          6           0        0.447311   -5.139118   -0.175663
      6          6           0       -0.250544   -3.106896   -1.469496
      7          6           0       -0.085372   -1.769681   -1.320238
      8          6           0        2.260536    0.270045   -0.472461
      9          1           0        1.385776   -0.441421    1.378896
     10          1           0        0.245186    0.388837    0.318533
     11          1           0        1.038028   -5.325575    0.718228
     12          1           0        0.913353   -5.637641   -1.027828
     13          1           0       -0.558567   -5.539807   -0.034272
     14          1           0       -0.767062   -3.672952   -2.226334
     15          1           0       -0.426377   -0.947044   -1.925951
     16          1           0        3.117418   -0.406768   -0.436036
     17          1           0        2.565241    1.237361   -0.065604
     18          1           0        1.979208    0.414670   -1.518366
 ---------------------------------------------------------------------

 SCF Done:  E(RB3LYP) =  -344.243823363     A.U. after    1 cycles

 Alpha  occ. eigenvalues --  -14.36528 -14.36263 -10.21015 -10.20400 -10.20263
 Alpha  occ. eigenvalues --  -10.20180 -10.18877 -10.16543  -1.02880  -0.92110
 Alpha  occ. eigenvalues --   -0.79013  -0.74778  -0.71358  -0.64931  -0.59959
 Alpha  occ. eigenvalues --   -0.57098  -0.52693  -0.47548  -0.46823  -0.45557
 Alpha  occ. eigenvalues --   -0.44757  -0.42687  -0.42036  -0.39688  -0.38172
 Alpha  occ. eigenvalues --   -0.37436  -0.35654  -0.28063  -0.23947  -0.23498
 Alpha virt. eigenvalues --    0.00517   0.00816   0.01311   0.01759   0.02987
 Alpha virt. eigenvalues --    0.03737   0.04573   0.04817   0.05180   0.06364
 Alpha virt. eigenvalues --    0.06907   0.07320   0.07637   0.08252   0.08673

 Mulliken charges:
               1
     1  C   -0.149340
     2  N   -0.015860
     3  C   -0.397696
     4  N   -0.050820
     5  C   -0.176529
     6  C   -0.149475
     7  C   -0.250732
     8  C   -0.392208
     9  H    0.164228
    10  H    0.162403
    11  H    0.167709
    12  H    0.165354
    13  H    0.168837
    14  H    0.155096
    15  H    0.157172
    16  H    0.146527
    17  H    0.152675
    18  H    0.142659
 Sum of Mulliken charges =  -0.00000

 Dipole moment (field-independent basis, Debye):
    X=             -1.7563    Y=              0.6935    Z=             -3.1273  Tot=              3.6532
 Quadrupole moment (field-independent basis, Debye-Ang):
   XX=            -53.3077   YY=            -39.7160   ZZ=            -50.0944
   XY=              7.2937   XZ=             -0.8007   YZ=              9.7344

  Exact polarizability:      97.298       6.133     132.703      15.292      -0.222     109.862
 Approx polarizability:     105.689       3.723     142.815      16.673       0.702     120.864

 Summary of Natural Population Analysis:

                                       Natural Population
                Natural  -----------------------------------------------
    Atom  No    Charge         Core      Valence    Rydberg      Total
 -----------------------------------------------------------------------
      C    1   -0.16647      1.99930     4.14904    0.01813     6.16647
      N    2   -0.45369      1.99933     5.43402    0.02034     7.45369
      C    3    0.03706      1.99935     3.92781    0.03578     5.96294
      N    4   -0.44958      1.99934     5.43363    0.01661     7.44958
      C    5   -0.34791      1.99934     4.33567    0.01290     6.34791
      C    6   -0.06644      1.99912     4.04642    0.02089     6.06644
      C    7   -0.06579      1.99912     4.04575    0.02093     6.06579
      C    8   -0.58568      1.99936     4.57856    0.00776     6.58568
      H    9    0.21262      0.00000     0.78514    0.00224     0.78738
      H   10    0.19895      0.00000     0.79926    0.00179     0.80105
      H   11    0.21614      0.00000     0.78195    0.00191     0.78386
      H   12    0.20082      0.00000     0.79793    0.00125     0.79918
      H   13    0.20034      0.00000     0.79840    0.00126     0.79966
      H   14    0.22673      0.00000     0.77174    0.00153     0.77327
      H   15    0.22704      0.00000     0.77131    0.00165     0.77296
      H   16    0.20427      0.00000     0.79386    0.00187     0.79573
      H   17    0.20989      0.00000     0.78878    0.00133     0.79011
      H   18    0.20169      0.00000     0.79671    0.00159     0.79831
 =======================================================================
   * Total *    0.00000     15.99425    43.83598    0.16976    60.00000

                      1                      2                      3
                      A                      A                      A
 Frequencies --     52.8561                86.1496               134.6519
 Red. masses --      2.4166                 1.1150                 3.1019
 Frc consts  --      0.0040                 0.0049                 0.0331
 IR Inten    --      0.5498                 0.7265                16.1409
 Raman Activ --      1.6649                 0.5110                 4.0659

                      4                      5                      6
                      A                      A                      A
 Frequencies --    215.7941               230.6948               303.8992
 Red. masses --      1.2347                 2.8663                 1.9575
 Frc consts  --      0.0339                 0.0899                 0.1065
 IR Inten    --      2.3727                11.8213                 4.6556
 Raman Activ --      0.0928                 2.6105                 0.1823

                      7                      8                      9
                      A                      A                      A
 Frequencies --    388.9144               444.5917               605.4641
 Red. masses --      3.2396                 2.7028                 3.9313
 Frc consts  --      0.2887                 0.3148                 0.8491
 IR Inten    --      6.2751                14.7114                 1.8361
 Raman Activ --      2.9421                 1.1108                16.8848

                     10                     11                     12
                      A                      A                      A
 Frequencies --    622.5843               653.0295               723.8027
 Red. masses --      4.5682                 4.0097                 1.2562
 Frc consts  --      1.0433                 1.0075                 0.3878
 IR Inten    --      0.1337                 1.7073                99.0741
 Raman Activ --      0.8351                 1.3253                 3.5249

                     13                     14                     15
                      A                      A                      A
 Frequencies --    730.4817               802.5806               836.5912
 Red. masses --      3.8047                 1.1705                 1.3647
 Frc consts  --      1.1962                 0.4442                 0.5628
 IR Inten    --     27.5021                 2.7108                 0.0493
 Raman Activ --      5.2323                 0.7030                13.9855

                     16                     17                     18
                      A                      A                      A
 Frequencies --    956.6804              1011.7625              1024.2512
 Red. masses --      2.4662                 3.3487                 3.1265
 Frc consts  --      1.3299                 2.0197                 1.9325
 IR Inten    --     13.9154                 2.8093                 1.2572
 Raman Activ --     10.5802                 9.1019                 8.7836

                     19                     20                     21
                      A                      A                      A
 Frequencies --   1070.1269              1094.6290              1099.9958
 Red. masses --      2.0112                 1.9384                 1.2069
 Frc consts  --      1.3570                 1.3684                 0.8604
 IR Inten    --      0.9100                 2.6661                11.7311
 Raman Activ --      6.9613                 7.6082                10.3146

                     22                     23                     24
                      A                      A                      A
 Frequencies --   1115.5960              1150.0768              1225.1503
 Red. masses --      1.8927                 1.3206                 1.8626
 Frc consts  --      1.3879                 1.0291                 1.6472
 IR Inten    --      7.0845                 0.1932                84.1624
 Raman Activ --      6.0655                 0.6933                 0.6495

                     25                     26                     27
                      A                      A                      A
 Frequencies --   1265.1146              1335.1530              1373.5303
 Red. masses --      1.8841                 3.4506                 8.1114
 Frc consts  --      1.7767                 3.6241                 9.0162
 IR Inten    --     16.3321                 2.8392                 2.3875
 Raman Activ --      6.4399                17.1585                74.0734

                     28                     29                     30
                      A                      A                      A
 Frequencies --   1381.9769              1384.1977              1406.7582
 Red. masses --      1.4952                 1.7695                 1.2772
 Frc consts  --      1.6824                 1.9976                 1.4892
 IR Inten    --     38.0630                19.7997                15.2436
 Raman Activ --     13.4507                16.5934                 0.9111

                     31                     32                     33
                      A                      A                      A
 Frequencies --   1422.8631              1460.3705              1481.4063
 Red. masses --      1.8991                 1.4179                 1.0973
 Frc consts  --      2.2653                 1.7816                 1.4189
 IR Inten    --     41.9218                15.5388                 4.1251
 Raman Activ --      3.4047                 8.4160                32.8575

                     34                     35                     36
                      A                      A                      A
 Frequencies --   1481.9861              1483.0449              1498.8283
 Red. masses --      1.0396                 1.0427                 1.0819
 Frc consts  --      1.3452                 1.3512                 1.4319
 IR Inten    --     15.7203                11.0065                 9.6108
 Raman Activ --     15.7694                16.2550                14.8284

                     37                     38                     39
                      A                      A                      A
 Frequencies --   1501.2129              1595.1522              3031.7714
 Red. masses --      1.0964                 4.5301                 1.0345
 Frc consts  --      1.4558                 6.7914                 5.6024
 IR Inten    --     20.7560                 1.5717                28.5799
 Raman Activ --     17.5902                79.2939               314.0253

                     40                     41                     42
                      A                      A                      A
 Frequencies --   3042.1922              3053.4584              3094.2510
 Red. masses --      1.0348                 1.0661                 1.1010
 Frc consts  --      5.6426                 5.8565                 6.2110
 IR Inten    --     77.3967                45.1979                14.3158
 Raman Activ --    363.2730               284.8028               179.2687

                     43                     44                     45
                      A                      A                      A
 Frequencies --   3101.4822              3102.4978              3121.4464
 Red. masses --      1.1053                 1.1013                 1.1019
 Frc consts  --      6.2644                 6.2457                 6.3259
 IR Inten    --     29.2515                54.7746                38.9107
 Raman Activ --    173.7666               177.4379                50.9374

                     46                     47                     48
                      A                      A                      A
 Frequencies --   3151.9579              3255.0803              3275.3959
 Red. masses --      1.1013                 1.0907                 1.1099
 Frc consts  --      6.4463                 6.8090                 7.0156
 IR Inten    --      9.6027                 1.7272                 0.6811
 Raman Activ --    103.7264               128.9542               273.7641

 - Thermochemistry -
 -------------------
 Temperature   298.150 Kelvin.  Pressure   1.00000 Atm.
 Thermochemistry will use frequencies scaled by 0.9670.

 Molecular mass:   110.08440 amu.
 Principal axes and moments of inertia in atomic units:
                           1         2         3
     Eigenvalues --   331.817671400.510671580.11052
           X            0.29662   0.58455   0.75520
           Y            0.95308  -0.23124  -0.19535
           Z            0.06044   0.77771  -0.62571
 This molecule is an asymmetric top.
 Rotational symmetry number  1.
 Rotational temperatures (Kelvin)      0.26103     0.06184     0.05482
 Rotational constants (GHZ):           5.43895     1.28863     1.14216
 Zero-point vibrational energy     392622.7 (Joules/Mol)
                                   93.83908 (Kcal/Mol)
 Warning -- explicit consideration of  10 degrees of freedom as
           vibrations may cause significant error
 Vibrational temperatures:     73.54   119.86   187.34   300.23   320.97
          (Kelvin)            422.81   541.10   618.56   842.38   866.20
                              908.56  1007.02  1016.32  1116.63  1163.95
                             1331.03  1407.66  1425.04  1488.86  1522.95
                             1530.42  1552.13  1600.10  1704.55  1760.15
                             1857.59  1910.99  1922.74  1925.83  1957.22
                             1979.63  2031.81  2061.08  2061.88  2063.36
                             2085.32  2088.63  2219.33  4218.10  4232.59
                             4248.27  4305.02  4315.08  4316.50  4342.86
                             4385.31  4528.78  4557.05

 Zero-point correction=                           0.149542 (Hartree/Particle)
 Thermal correction to Energy=                    0.158025
 Thermal correction to Enthalpy=                  0.158969
 Thermal correction to Gibbs Free Energy=         0.116049
 Sum of electronic and zero-point Energies=           -344.094281
 Sum of electronic and thermal Energies=              -344.085799
 Sum of electronic and thermal Enthalpies=            -344.084854
 Sum of electronic and thermal Free Energies=         -344.127774

                     E (Thermal)             CV                S
                      KCal/Mol        Cal/Mol-Kelvin    Cal/Mol-Kelvin
 Total                   99.162             30.711             90.332
 Electronic               0.000              0.000              0.000
 Translational            0.889              2.981             40.004
 Rotational               0.889              2.981             28.087
 Vibrational             97.385             24.749             22.241
 Vibration     1          0.595              1.977              4.774
 Vibration     2          0.600              1.961              3.811
 Vibration     3          0.612              1.923              2.943
 Vibration     4          0.642              1.827              2.055
 Vibration     5          0.649              1.806              1.934
 Vibration     6          0.689              1.685              1.452
 Vibration     7          0.747              1.521              1.055
 Vibration     8          0.791              1.405              0.859
 Vibration     9          0.942              1.063              0.475
 Vibration    10          0.960              1.027              0.446

 Optimization completed.
    -- Stationary point found.
 Normal termination of Gaussian 16 at Fri Jun  2 11:24:14 2023.
