 Gaussian 16, Revision C.01,
 Gaussian 16:  ES64L-G16RevC.01  3-Jul-2019

 ----------------------------------------------------------------------
 #p freq=raman scale=0.967 pop=(nbo,full,hirshfeld) guess=read geom=all
 check b3lyp/6-311+G(d,p) int=grid=ultrafine EmpiricalDispersion=GD3BJ
 SCRF=(Solvent=ethanol) scf=(xqc,intrep,maxconventionalcycle=350) nosym
 m
 ----------------------------------------------------------------------

 Structure from the checkpoint file:  "/scratch1/svicchi/G09-659869.pbs02/02-freq/PG-H_dissociation-site_index-0-freq.chk"
 ----------------------------------
 PG-H_dissociation-site_index-0.gjf
 ----------------------------------
 Charge = -1 Multiplicity = 1

                          Input orientation:
 ---------------------------------------------------------------------
 Center     Atomic      Atomic             Coordinates (Angstroms)
 Number     Number       Type             X           Y           Z
 ---------------------------------------------------------------------
      1          8           0       -4.023553    1.171519    0.386103
      2          6           0       -3.041501    2.101864    0.115685
      3          6           0       -1.717902    1.378836   -0.266807
      4          1           0       -2.810650    2.750219    0.995193
      5          1           0       -3.291176    2.800084   -0.712385
      6          6           0       -0.468680    2.211011   -0.047522
      7          1           0       -0.520372    3.132129   -0.638466
      8          1           0        0.434734    1.670562   -0.345488
      9          1           0       -0.374228    2.485096    1.007748
     10          8           0       -1.683868    0.190471    0.532174
     11          1           0       -1.776424    1.083893   -1.328054
     12          1           0       -2.663285    0.104998    0.704979
 ---------------------------------------------------------------------

 SCF Done:  E(RB3LYP) =  -269.183849765     A.U. after    1 cycles

 Alpha  occ. eigenvalues --  -19.08408 -19.00481 -10.18690 -10.16681 -10.14547
 Alpha  occ. eigenvalues --   -0.99124  -0.88478  -0.73539  -0.62166  -0.54432
 Alpha  occ. eigenvalues --   -0.47083  -0.44504  -0.39972  -0.38128  -0.36956
 Alpha  occ. eigenvalues --   -0.34645  -0.32826  -0.29886  -0.25230  -0.19222
 Alpha  occ. eigenvalues --   -0.18104
 Alpha virt. eigenvalues --    0.01852   0.03236   0.03783   0.04439   0.06970
 Alpha virt. eigenvalues --    0.07671   0.07880   0.08281   0.09668   0.11891
 Alpha virt. eigenvalues --    0.12712   0.13727   0.17113   0.18354   0.19334

 Mulliken charges:
               1
     1  O   -0.836599
     2  C   -0.209124
     3  C    0.030259
     4  H    0.059102
     5  H    0.074627
     6  C   -0.469587
     7  H    0.133566
     8  H    0.132927
     9  H    0.134996
    10  O   -0.399933
    11  H    0.105227
    12  H    0.244540
 Sum of Mulliken charges =  -1.00000

 Dipole moment (field-independent basis, Debye):
    X=             16.4980    Y=             -3.7435    Z=             -2.5397  Tot=             17.1070
 Quadrupole moment (field-independent basis, Debye-Ang):
   XX=           -101.6692   YY=            -40.1324   ZZ=            -36.7455
   XY=             17.2120   XZ=              7.0777   YZ=             -2.4695

  Exact polarizability:      75.829       2.445      73.039      -0.844      -0.857      68.261
 Approx polarizability:      74.128       2.195      74.596      -0.838      -1.824      70.678

 Summary of Natural Population Analysis:

                                       Natural Population
                Natural  -----------------------------------------------
    Atom  No    Charge         Core      Valence    Rydberg      Total
 -----------------------------------------------------------------------
      O    1   -1.03867      1.99985     7.02188    0.01694     9.03867
      C    2   -0.03352      1.99929     4.00188    0.03234     6.03352
      C    3    0.08259      1.99924     3.88655    0.03162     5.91741
      H    4    0.09607      0.00000     0.89938    0.00455     0.90393
      H    5    0.11297      0.00000     0.88292    0.00411     0.88703
      C    6   -0.59698      1.99932     4.58633    0.01133     6.59698
      H    7    0.19968      0.00000     0.79855    0.00176     0.80032
      H    8    0.19790      0.00000     0.80041    0.00169     0.80210
      H    9    0.19432      0.00000     0.80285    0.00283     0.80568
      O   10   -0.83082      1.99980     6.81582    0.01519     8.83082
      H   11    0.13355      0.00000     0.86293    0.00352     0.86645
      H   12    0.48290      0.00000     0.50970    0.00739     0.51710
 =======================================================================
   * Total *   -1.00000      9.99751    31.86922    0.13327    42.00000

                      1                      2                      3
                      A                      A                      A
 Frequencies --    140.9169               228.9138               287.1066
 Red. masses --      2.7775                 1.0830                 3.3507
 Frc consts  --      0.0325                 0.0334                 0.1627
 IR Inten    --     18.6365                 1.5214                41.8682
 Raman Activ --      1.7921                 0.3578                 1.8218

                      4                      5                      6
                      A                      A                      A
 Frequencies --    362.9436               476.7685               570.7304
 Red. masses --      3.2907                 2.4533                 3.5120
 Frc consts  --      0.2554                 0.3286                 0.6740
 IR Inten    --     39.6938                 8.6140                23.5201
 Raman Activ --      1.1670                 0.8188                 8.0753

                      7                      8                      9
                      A                      A                      A
 Frequencies --    787.1689               833.5943               900.3742
 Red. masses --      1.2303                 2.0601                 2.1633
 Frc consts  --      0.4492                 0.8434                 1.0333
 IR Inten    --    128.6631                37.3977                30.0156
 Raman Activ --      3.8113                12.9616                10.5815

                     10                     11                     12
                      A                      A                      A
 Frequencies --    945.4717              1067.5252              1087.5235
 Red. masses --      1.3209                 3.9168                 3.1379
 Frc consts  --      0.6957                 2.6299                 2.1866
 IR Inten    --     13.0893               290.9758               100.7167
 Raman Activ --      3.4268                16.0191                 8.1922

                     13                     14                     15
                      A                      A                      A
 Frequencies --   1129.6512              1144.5417              1238.4068
 Red. masses --      2.4876                 2.1572                 1.1677
 Frc consts  --      1.8703                 1.6649                 1.0552
 IR Inten    --     29.7763                 3.0024                 4.4565
 Raman Activ --      7.3398                 7.1667                14.9136

                     16                     17                     18
                      A                      A                      A
 Frequencies --   1302.8014              1358.3960              1365.8333
 Red. masses --      1.1846                 1.1625                 1.2196
 Frc consts  --      1.1846                 1.2638                 1.3405
 IR Inten    --     27.6775                34.0968                50.2685
 Raman Activ --     25.1030                17.9171                 3.5550

                     19                     20                     21
                      A                      A                      A
 Frequencies --   1389.6834              1454.5543              1477.4253
 Red. masses --      1.2549                 1.2751                 1.1155
 Frc consts  --      1.4279                 1.5895                 1.4346
 IR Inten    --     30.1162               158.0170                41.1104
 Raman Activ --      5.8990                 9.1773                24.6124

                     22                     23                     24
                      A                      A                      A
 Frequencies --   1484.7731              1490.7423              2755.1027
 Red. masses --      1.0572                 1.1135                 1.0771
 Frc consts  --      1.3732                 1.4580                 4.8170
 IR Inten    --      5.0256                29.5153               355.7515
 Raman Activ --     20.8068                14.8007               509.4042

                     25                     26                     27
                      A                      A                      A
 Frequencies --   2814.7794              2921.6634              3010.1040
 Red. masses --      1.0721                 1.0826                 1.0348
 Frc consts  --      5.0047                 5.4446                 5.5241
 IR Inten    --    315.3825               211.5864                52.2515
 Raman Activ --    394.6399               425.1635               383.9241

                     28                     29                     30
                      A                      A                      A
 Frequencies --   3070.4629              3077.3508              3178.9101
 Red. masses --      1.1004                 1.1022                 1.0647
 Frc consts  --      6.1122                 6.1498                 6.3392
 IR Inten    --     53.2361                78.9698               658.4723
 Raman Activ --    152.4793               141.3456               132.9213

 - Thermochemistry -
 -------------------
 Temperature   298.150 Kelvin.  Pressure   1.00000 Atm.
 Thermochemistry will use frequencies scaled by 0.9670.

 Molecular mass:    75.04460 amu.
 Principal axes and moments of inertia in atomic units:
                           1         2         3
     Eigenvalues --   201.50166 465.41981 612.84359
           X            0.98195  -0.17327   0.07585
           Y            0.14948   0.95660   0.25013
           Z           -0.11590  -0.23427   0.96524
 This molecule is an asymmetric top.
 Rotational symmetry number  1.
 Rotational temperatures (Kelvin)      0.42984     0.18610     0.14133
 Rotational constants (GHZ):           8.95646     3.87766     2.94486
 Zero-point vibrational energy     250758.4 (Joules/Mol)
                                   59.93270 (Kcal/Mol)
 Warning -- explicit consideration of   6 degrees of freedom as
           vibrations may cause significant error
 Vibrational temperatures:    196.06   318.49   399.45   504.96   663.33
          (Kelvin)            794.06  1095.19  1159.78  1252.69  1315.43
                             1485.24  1513.07  1571.68  1592.40  1722.99
                             1812.58  1889.93  1900.28  1933.46  2023.72
                             2055.54  2065.76  2074.07  3833.17  3916.20
                             4064.90  4187.95  4271.93  4281.51  4422.81

 Zero-point correction=                           0.095509 (Hartree/Particle)
 Thermal correction to Energy=                    0.101267
 Thermal correction to Enthalpy=                  0.102211
 Thermal correction to Gibbs Free Energy=         0.066832
 Sum of electronic and zero-point Energies=           -269.088341
 Sum of electronic and thermal Energies=              -269.082583
 Sum of electronic and thermal Enthalpies=            -269.081638
 Sum of electronic and thermal Free Energies=         -269.117018

                     E (Thermal)             CV                S
                      KCal/Mol        Cal/Mol-Kelvin    Cal/Mol-Kelvin
 Total                   63.546             20.226             74.462
 Electronic               0.000              0.000              0.000
 Translational            0.889              2.981             38.862
 Rotational               0.889              2.981             25.555
 Vibrational             61.769             14.264             10.044
 Vibration     1          0.614              1.917              2.856
 Vibration     2          0.648              1.809              1.948
 Vibration     3          0.679              1.715              1.548
 Vibration     4          0.728              1.573              1.162
 Vibration     5          0.819              1.336              0.763
 Vibration     6          0.907              1.136              0.540

 Optimization completed.
    -- Stationary point found.
 Normal termination of Gaussian 16 at Fri Jun  2 11:25:54 2023.
