 Gaussian 16, Revision C.01,
 Gaussian 16:  ES64L-G16RevC.01  3-Jul-2019

 ----------------------------------------------------------------------
 #p freq=raman scale=0.967 pop=(nbo,full,hirshfeld) guess=read geom=all
 check b3lyp/6-311+G(d,p) int=grid=ultrafine EmpiricalDispersion=GD3BJ
 SCRF=(Solvent=ethanol) scf=(xqc,intrep,maxconventionalcycle=350) nosym
 m
 ----------------------------------------------------------------------

 Structure from the checkpoint file:  "/scratch1/svicchi/G09-659783.pbs02/02-freq/2ethylimidazolide-H_dissociation-site_index-0-freq.chk"
 -------------------------------------------------
 2ethylimidazolide-H_dissociation-site_index-0.gjf
 -------------------------------------------------
 Charge =  0 Multiplicity = 1

                          Input orientation:
 ---------------------------------------------------------------------
 Center     Atomic      Atomic             Coordinates (Angstroms)
 Number     Number       Type             X           Y           Z
 ---------------------------------------------------------------------
      1          7           0       -0.666691   -0.561947   -0.779412
      2          7           0        0.400053   -0.693869    1.148386
      3          6           0       -0.461839   -1.302810    0.350176
      4          6           0       -1.101246   -2.632761    0.584587
      5          6           0        0.105180    0.578827   -0.693201
      6          6           0        0.757511    0.478126    0.506544
      7          1           0        0.109204    1.328920   -1.465457
      8          1           0        1.454440    1.174916    0.945255
      9          6           0       -0.442403   -3.767124   -0.218440
     10          1           0       -2.165649   -2.576001    0.335457
     11          1           0       -1.032941   -2.844633    1.653196
     12          1           0       -0.516169   -3.585372   -1.293653
     13          1           0       -0.930450   -4.720579   -0.002795
     14          1           0        0.615787   -3.857843    0.038274
     15          1           0       -1.281795   -0.801122   -1.542148
 ---------------------------------------------------------------------

 SCF Done:  E(RB3LYP) =  -304.970450661     A.U. after    1 cycles

 Alpha  occ. eigenvalues --  -14.36910 -14.29984 -10.23396 -10.20184 -10.18725
 Alpha  occ. eigenvalues --  -10.18305 -10.16592  -1.02101  -0.87448  -0.79854
 Alpha  occ. eigenvalues --   -0.73018  -0.64410  -0.61128  -0.59648  -0.53158
 Alpha  occ. eigenvalues --   -0.46311  -0.45466  -0.44047  -0.43119  -0.41849
 Alpha  occ. eigenvalues --   -0.38143  -0.36489  -0.35472  -0.29226  -0.28634
 Alpha  occ. eigenvalues --   -0.23435
 Alpha virt. eigenvalues --    0.00068   0.01088   0.02405   0.02915   0.03109
 Alpha virt. eigenvalues --    0.04104   0.04863   0.05041   0.06267   0.06328
 Alpha virt. eigenvalues --    0.07775   0.08310   0.08391   0.09324   0.10141

 Mulliken charges:
               1
     1  N   -0.172483
     2  N   -0.267255
     3  C    0.163300
     4  C   -0.516801
     5  C   -0.103763
     6  C   -0.043231
     7  H    0.149135
     8  H    0.137575
     9  C   -0.445405
    10  H    0.166633
    11  H    0.168828
    12  H    0.143981
    13  H    0.149238
    14  H    0.149186
    15  H    0.321063
 Sum of Mulliken charges =  -0.00000

 Dipole moment (field-independent basis, Debye):
    X=             -2.6962    Y=             -0.5136    Z=             -4.1649  Tot=              4.9880
 Quadrupole moment (field-independent basis, Debye-Ang):
   XX=            -41.3900   YY=            -37.6394   ZZ=            -43.9148
   XY=              5.7167   XZ=              1.6902   YZ=              1.7763

  Exact polarizability:      81.283      13.302     104.857       8.955      -6.724      91.845
 Approx polarizability:      93.188      14.510     109.958      14.368      -8.615     109.173

 Summary of Natural Population Analysis:

                                       Natural Population
                Natural  -----------------------------------------------
    Atom  No    Charge         Core      Valence    Rydberg      Total
 -----------------------------------------------------------------------
      N    1   -0.54131      1.99929     5.52790    0.01412     7.54131
      N    2   -0.56331      1.99941     5.54095    0.02296     7.56331
      C    3    0.38424      1.99928     3.58095    0.03554     5.61576
      C    4   -0.43007      1.99923     4.41637    0.01447     6.43007
      C    5   -0.08809      1.99920     4.06614    0.02276     6.08809
      C    6   -0.09543      1.99921     4.06767    0.02856     6.09543
      H    7    0.22424      0.00000     0.77431    0.00146     0.77576
      H    8    0.20650      0.00000     0.79218    0.00132     0.79350
      C    9   -0.56778      1.99936     4.55969    0.00872     6.56778
      H   10    0.21420      0.00000     0.78385    0.00196     0.78580
      H   11    0.22273      0.00000     0.77519    0.00208     0.77727
      H   12    0.19824      0.00000     0.80014    0.00162     0.80176
      H   13    0.20489      0.00000     0.79371    0.00140     0.79511
      H   14    0.20163      0.00000     0.79663    0.00174     0.79837
      H   15    0.42933      0.00000     0.56870    0.00197     0.57067
 =======================================================================
   * Total *   -0.00000     13.99497    37.84437    0.16066    52.00000

                      1                      2                      3
                      A                      A                      A
 Frequencies --     37.8386               153.4180               216.3613
 Red. masses --      2.4930                 3.2855                 1.1352
 Frc consts  --      0.0021                 0.0456                 0.0313
 IR Inten    --      6.0616                 2.4644                 1.2875
 Raman Activ --      3.1217                 4.4300                 0.1588

                      4                      5                      6
                      A                      A                      A
 Frequencies --    355.8005               393.3891               575.4910
 Red. masses --      2.3011                 3.5108                 1.3722
 Frc consts  --      0.1716                 0.3201                 0.2678
 IR Inten    --      8.1816                13.8375               111.8642
 Raman Activ --      1.7681                 2.1463                 1.4554

                      7                      8                      9
                      A                      A                      A
 Frequencies --    645.9623               657.3337               730.3222
 Red. masses --      2.4612                 3.6071                 1.3745
 Frc consts  --      0.6051                 0.9183                 0.4319
 IR Inten    --     27.0358                 0.2451                70.7415
 Raman Activ --      1.3406                 6.8056                10.0643

                     10                     11                     12
                      A                      A                      A
 Frequencies --    753.4720               790.5341               861.7737
 Red. masses --      2.9692                 1.2348                 1.3438
 Frc consts  --      0.9932                 0.4547                 0.5880
 IR Inten    --     18.2897                 0.6126                 9.9921
 Raman Activ --      0.7383                 0.3031                 7.6166

                     13                     14                     15
                      A                      A                      A
 Frequencies --    939.0856               958.1151              1001.1873
 Red. masses --      6.3530                 2.7152                 2.1950
 Frc consts  --      3.3009                 1.4686                 1.2963
 IR Inten    --      2.0911                 6.7994                 2.8317
 Raman Activ --      5.3929                19.7493                 4.4469

                     16                     17                     18
                      A                      A                      A
 Frequencies --   1059.4128              1082.3607              1104.6485
 Red. masses --      1.6408                 1.7577                 1.4521
 Frc consts  --      1.0850                 1.2132                 1.0440
 IR Inten    --     46.5973                 7.9400                29.1284
 Raman Activ --      4.1902                10.0155                 2.5329

                     19                     20                     21
                      A                      A                      A
 Frequencies --   1135.4050              1172.7081              1251.9265
 Red. masses --      1.8706                 3.2327                 1.7021
 Frc consts  --      1.4208                 2.6194                 1.5718
 IR Inten    --      9.3779                 7.8635                14.2493
 Raman Activ --     43.0902                19.7374                 7.0148

                     22                     23                     24
                      A                      A                      A
 Frequencies --   1307.9335              1345.9182              1384.9020
 Red. masses --      1.2965                 1.5452                 2.4620
 Frc consts  --      1.3067                 1.6492                 2.7821
 IR Inten    --      3.0692                12.6660                 2.0710
 Raman Activ --     15.3494                10.0230                45.8061

                     25                     26                     27
                      A                      A                      A
 Frequencies --   1407.3027              1456.1147              1474.3469
 Red. masses --      1.2725                 3.0155                 1.0810
 Frc consts  --      1.4848                 3.7671                 1.3844
 IR Inten    --      5.3317                56.3507                 5.4350
 Raman Activ --      3.8373                17.0453                31.2408

                     28                     29                     30
                      A                      A                      A
 Frequencies --   1489.6823              1494.1030              1509.5095
 Red. masses --      1.0391                 1.2480                 2.9712
 Frc consts  --      1.3586                 1.6415                 3.9889
 IR Inten    --     13.5890                 9.9738                14.0062
 Raman Activ --     15.5807                33.9938               199.4802

                     31                     32                     33
                      A                      A                      A
 Frequencies --   1585.5790              3028.6800              3036.9777
 Red. masses --      3.8378                 1.0342                 1.0658
 Frc consts  --      5.6847                 5.5896                 5.7920
 IR Inten    --     53.1696                41.1194                34.3624
 Raman Activ --     24.9051               363.6146               280.4787

                     34                     35                     36
                      A                      A                      A
 Frequencies --   3082.7557              3097.5951              3103.7747
 Red. masses --      1.0986                 1.1019                 1.1023
 Frc consts  --      6.1515                 6.2292                 6.2565
 IR Inten    --      2.6722                58.1899                61.0702
 Raman Activ --    233.3579               232.6290                21.8498

                     37                     38                     39
                      A                      A                      A
 Frequencies --   3237.7255              3275.0887              3645.3576
 Red. masses --      1.0937                 1.1038                 1.0820
 Frc consts  --      6.7553                 6.9758                 8.4711
 IR Inten    --      8.8552                 1.3255               115.0549
 Raman Activ --    156.1031               227.0640               201.9594

 - Thermochemistry -
 -------------------
 Temperature   298.150 Kelvin.  Pressure   1.00000 Atm.
 Thermochemistry will use frequencies scaled by 0.9670.

 Molecular mass:    96.06875 amu.
 Principal axes and moments of inertia in atomic units:
                           1         2         3
     Eigenvalues --   268.06855 935.704151077.48327
           X            0.27639   0.40099   0.87339
           Y            0.96058  -0.08698  -0.26404
           Z           -0.02991   0.91194  -0.40923
 This molecule is an asymmetric top.
 Rotational symmetry number  1.
 Rotational temperatures (Kelvin)      0.32310     0.09257     0.08039
 Rotational constants (GHZ):           6.73239     1.92875     1.67496
 Zero-point vibrational energy     322974.8 (Joules/Mol)
                                   77.19284 (Kcal/Mol)
 Warning -- explicit consideration of   6 degrees of freedom as
           vibrations may cause significant error
 Vibrational temperatures:     52.64   213.45   301.02   495.02   547.32
          (Kelvin)            800.68   898.73   914.55  1016.10  1048.30
                             1099.87  1198.98  1306.55  1333.02  1392.95
                             1473.96  1505.89  1536.89  1579.69  1631.59
                             1741.80  1819.72  1872.57  1926.81  1957.98
                             2025.89  2051.25  2072.59  2078.74  2100.18
                             2206.01  4213.79  4225.34  4289.03  4309.68
                             4318.27  4504.64  4556.62  5071.78

 Zero-point correction=                           0.123015 (Hartree/Particle)
 Thermal correction to Energy=                    0.129821
 Thermal correction to Enthalpy=                  0.130765
 Thermal correction to Gibbs Free Energy=         0.091626
 Sum of electronic and zero-point Energies=           -304.847436
 Sum of electronic and thermal Energies=              -304.840629
 Sum of electronic and thermal Enthalpies=            -304.839685
 Sum of electronic and thermal Free Energies=         -304.878824

                     E (Thermal)             CV                S
                      KCal/Mol        Cal/Mol-Kelvin    Cal/Mol-Kelvin
 Total                   81.464             24.927             82.375
 Electronic               0.000              0.000              0.000
 Translational            0.889              2.981             39.598
 Rotational               0.889              2.981             27.094
 Vibrational             79.687             18.965             15.683
 Vibration     1          0.594              1.982              5.436
 Vibration     2          0.618              1.904              2.693
 Vibration     3          0.642              1.827              2.050
 Vibration     4          0.723              1.587              1.193
 Vibration     5          0.750              1.512              1.038
 Vibration     6          0.912              1.125              0.531

 Normal termination of Gaussian 16 at Fri Jun  2 12:20:20 2023.
