 Gaussian 16, Revision C.01,
 Gaussian 16:  ES64L-G16RevC.01  3-Jul-2019

 ----------------------------------------------------------------------
 #p freq=raman scale=0.967 pop=(nbo,full,hirshfeld) guess=read geom=all
 check b3lyp/6-311+G(d,p) int=grid=ultrafine EmpiricalDispersion=GD3BJ
 SCRF=(Solvent=ethanol) scf=(xqc,intrep,maxconventionalcycle=350) nosym
 m
 ----------------------------------------------------------------------

 Structure from the checkpoint file:  "/scratch1/svicchi/G09-659803.pbs02/02-freq/2CNPyr-CO2_binding-site_index-3-freq.chk"
 -----------------------------------
 2CNPyr-CO2_binding-site_index-3.gjf
 -----------------------------------
 Charge = -1 Multiplicity = 1

                          Input orientation:
 ---------------------------------------------------------------------
 Center     Atomic      Atomic             Coordinates (Angstroms)
 Number     Number       Type             X           Y           Z
 ---------------------------------------------------------------------
      1          6           0       -1.394305   -0.745738   -0.023893
      2          6           0       -0.351860    0.173664    0.025079
      3          6           0       -2.261399    1.327604    0.097590
      4          7           0       -0.900705    1.447526    0.099814
      5          6           0       -2.601479   -0.010869    0.022804
      6          1           0       -3.603090   -0.411057    0.004196
      7          1           0       -2.871560    2.212477    0.150853
      8          1           0       -1.275580   -1.816278   -0.086496
      9          6           0        1.025089   -0.124212   -0.003279
     10          7           0        2.120417   -0.503436   -0.035312
     11          6           0       -0.160180    2.749290    0.180039
     12          8           0        1.071562    2.625704    0.190555
     13          8           0       -0.898649    3.742660    0.224199
 ---------------------------------------------------------------------

 SCF Done:  E(RB3LYP) =  -490.719185921     A.U. after    1 cycles

 Alpha  occ. eigenvalues --  -19.07457 -19.07425 -14.36720 -14.30928 -10.29551
 Alpha  occ. eigenvalues --  -10.22588 -10.21741 -10.20266 -10.18067 -10.16932
 Alpha  occ. eigenvalues --   -1.05964  -0.97945  -0.96644  -0.90903  -0.79009
 Alpha  occ. eigenvalues --   -0.75794  -0.62634  -0.60876  -0.58507  -0.48501
 Alpha  occ. eigenvalues --   -0.46902  -0.45601  -0.44467  -0.42281  -0.41168
 Alpha  occ. eigenvalues --   -0.39909  -0.39533  -0.37525  -0.35479  -0.34082
 Alpha  occ. eigenvalues --   -0.27810  -0.26847  -0.26191  -0.25187  -0.23094
 Alpha virt. eigenvalues --   -0.03688   0.00821   0.01926   0.02770   0.03207
 Alpha virt. eigenvalues --    0.03231   0.04613   0.05064   0.05578   0.05697
 Alpha virt. eigenvalues --    0.07554   0.08220   0.08687   0.08913   0.08944

 Mulliken charges:
               1
     1  C    0.041211
     2  C    0.931272
     3  C    0.044450
     4  N   -0.032624
     5  C   -0.332314
     6  H    0.143301
     7  H    0.160554
     8  H    0.143091
     9  C   -1.072510
    10  N   -0.375748
    11  C    0.393944
    12  O   -0.515028
    13  O   -0.529598
 Sum of Mulliken charges =  -1.00000

 Dipole moment (field-independent basis, Debye):
    X=             -5.6186    Y=            -11.6551    Z=             -0.7396  Tot=             12.9599
 Quadrupole moment (field-independent basis, Debye-Ang):
   XX=            -71.6565   YY=           -102.7676   ZZ=            -60.4398
   XY=              2.0733   XZ=             -0.0072   YZ=             -2.7183

  Exact polarizability:     175.741     -12.495     132.938      -1.001       3.761      68.508
 Approx polarizability:     215.164     -21.125     148.999      -1.553       4.161      76.830

 Summary of Natural Population Analysis:

                                       Natural Population
                Natural  -----------------------------------------------
    Atom  No    Charge         Core      Valence    Rydberg      Total
 -----------------------------------------------------------------------
      C    1   -0.21318      1.99910     4.19849    0.01560     6.21318
      C    2   -0.02748      1.99885     4.00386    0.02476     6.02748
      C    3    0.01204      1.99920     3.96631    0.02245     5.98796
      N    4   -0.44165      1.99918     5.41751    0.02495     7.44165
      C    5   -0.30589      1.99918     4.28919    0.01752     6.30589
      H    6    0.22635      0.00000     0.77233    0.00133     0.77365
      H    7    0.23187      0.00000     0.76649    0.00165     0.76813
      H    8    0.22844      0.00000     0.77018    0.00138     0.77156
      C    9    0.33060      1.99924     3.63744    0.03272     5.66940
      N   10   -0.42968      1.99957     5.40692    0.02319     7.42968
      C   11    0.92142      1.99959     3.01943    0.05956     5.07858
      O   12   -0.76087      1.99975     6.74761    0.01350     8.76087
      O   13   -0.77197      1.99976     6.76039    0.01183     8.77197
 =======================================================================
   * Total *   -1.00000     19.99341    49.75615    0.25044    70.00000

                      1                      2                      3
                      A                      A                      A
 Frequencies --     60.0434               139.8616               161.6338
 Red. masses --     14.8887                 5.2966                13.6076
 Frc consts  --      0.0316                 0.0610                 0.2095
 IR Inten    --      0.4467                 1.2146                 2.7785
 Raman Activ --      0.6108                 3.1285                 5.7712

                      4                      5                      6
                      A                      A                      A
 Frequencies --    182.6508               240.4234               384.6478
 Red. masses --      7.1718                 7.0578                 9.9019
 Frc consts  --      0.1410                 0.2404                 0.8632
 IR Inten    --      3.5427                 6.1482                 0.4436
 Raman Activ --      0.4745                11.6100                 5.9598

                      7                      8                      9
                      A                      A                      A
 Frequencies --    468.3393               511.7225               605.6353
 Red. masses --     12.6839                 9.9638                 7.6281
 Frc consts  --      1.6392                 1.5372                 1.6485
 IR Inten    --      7.5531                 9.5220                10.5575
 Raman Activ --      2.3200                 6.1319                18.3330

                     10                     11                     12
                      A                      A                      A
 Frequencies --    611.4068               641.4776               649.6165
 Red. masses --      3.1995                 7.7897                 4.3702
 Frc consts  --      0.7047                 1.8886                 1.0866
 IR Inten    --      6.6279                19.3604                 6.6072
 Raman Activ --      0.4251                 6.8372                 4.0790

                     13                     14                     15
                      A                      A                      A
 Frequencies --    753.0195               762.6320               788.4859
 Red. masses --      1.2036                13.0020                 7.5742
 Frc consts  --      0.4021                 4.4554                 2.7744
 IR Inten    --    130.7107               394.7441                29.5931
 Raman Activ --     14.0472                20.8866                 3.4769

                     16                     17                     18
                      A                      A                      A
 Frequencies --    846.1505               904.4346               913.2603
 Red. masses --      1.5031                 1.3514                 5.1288
 Frc consts  --      0.6341                 0.6513                 2.5203
 IR Inten    --      5.5048                 1.9051                 0.4021
 Raman Activ --      4.0768                 1.7042                24.7374

                     19                     20                     21
                      A                      A                      A
 Frequencies --   1026.0754              1067.2733              1154.5710
 Red. masses --      1.4347                 1.5218                 3.3406
 Frc consts  --      0.8900                 1.0213                 2.6237
 IR Inten    --     39.6983               166.8432                 7.2875
 Raman Activ --      2.3730                16.0073                33.1975

                     22                     23                     24
                      A                      A                      A
 Frequencies --   1203.8254              1261.8552              1313.9212
 Red. masses --      2.3165                 2.8923                 6.0763
 Frc consts  --      1.9779                 2.7134                 6.1806
 IR Inten    --    471.3393               498.2654               128.3180
 Raman Activ --     54.3195               103.2535                16.7372

                     25                     26                     27
                      A                      A                      A
 Frequencies --   1382.3493              1438.1581              1455.4839
 Red. masses --     11.1657                 4.5470                 4.0497
 Frc consts  --     12.5710                 5.5410                 5.0546
 IR Inten    --      9.6720                42.3295                49.7575
 Raman Activ --      3.7300               462.9348               206.4270

                     28                     29                     30
                      A                      A                      A
 Frequencies --   1546.1405              1729.4842              2297.9031
 Red. masses --      4.7434                12.8413                12.6543
 Frc consts  --      6.6810                22.6304                39.3688
 IR Inten    --     23.8802              1090.9287               439.0515
 Raman Activ --     31.5142                11.8526              1691.9366

                     31                     32                     33
                      A                      A                      A
 Frequencies --   3233.7334              3247.3383              3279.8198
 Red. masses --      1.0915                 1.1001                 1.0998
 Frc consts  --      6.7251                 6.8352                 6.9702
 IR Inten    --      5.4731                 3.0168                 4.9960
 Raman Activ --    182.5279               267.5748               212.8588

 - Thermochemistry -
 -------------------
 Temperature   298.150 Kelvin.  Pressure   1.00000 Atm.
 Thermochemistry will use frequencies scaled by 0.9670.

 Molecular mass:   135.01945 amu.
 Principal axes and moments of inertia in atomic units:
                           1         2         3
     Eigenvalues --  1007.681371141.318212148.88946
           X           -0.27414   0.96169   0.00263
           Y            0.95990   0.27380  -0.06023
           Z            0.05864   0.01398   0.99818
 This molecule is an asymmetric top.
 Rotational symmetry number  1.
 Warning -- assumption of classical behavior for rotation
           may cause significant error
 Rotational temperatures (Kelvin)      0.08595     0.07589     0.04031
 Rotational constants (GHZ):           1.79098     1.58128     0.83985
 Zero-point vibrational energy     209745.3 (Joules/Mol)
                                   50.13034 (Kcal/Mol)
 Warning -- explicit consideration of  11 degrees of freedom as
           vibrations may cause significant error
 Vibrational temperatures:     83.54   194.59   224.88   254.12   334.50
          (Kelvin)            535.16   651.60   711.96   842.62   850.65
                              892.49   903.81  1047.67  1061.05  1097.02
                             1177.25  1258.34  1270.62  1427.58  1484.89
                             1606.35  1674.88  1755.62  1828.06  1923.26
                             2000.91  2025.01  2151.14  2406.23  3197.07
                             4499.08  4518.01  4563.20

 Zero-point correction=                           0.079888 (Hartree/Particle)
 Thermal correction to Energy=                    0.088058
 Thermal correction to Enthalpy=                  0.089002
 Thermal correction to Gibbs Free Energy=         0.046187
 Sum of electronic and zero-point Energies=           -490.639298
 Sum of electronic and thermal Energies=              -490.631128
 Sum of electronic and thermal Enthalpies=            -490.630184
 Sum of electronic and thermal Free Energies=         -490.672999

                     E (Thermal)             CV                S
                      KCal/Mol        Cal/Mol-Kelvin    Cal/Mol-Kelvin
 Total                   55.257             29.608             90.112
 Electronic               0.000              0.000              0.000
 Translational            0.889              2.981             40.613
 Rotational               0.889              2.981             29.293
 Vibrational             53.480             23.647             20.207
 Vibration     1          0.596              1.974              4.522
 Vibration     2          0.613              1.918              2.870
 Vibration     3          0.620              1.896              2.594
 Vibration     4          0.628              1.871              2.364
 Vibration     5          0.653              1.791              1.860
 Vibration     6          0.744              1.530              1.072
 Vibration     7          0.811              1.355              0.787
 Vibration     8          0.850              1.261              0.671
 Vibration     9          0.943              1.062              0.475
 Vibration    10          0.949              1.050              0.465
 Vibration    11          0.980              0.989              0.416

 Optimization completed.
    -- Stationary point found.
 Normal termination of Gaussian 16 at Fri Jun  2 12:13:57 2023.
