 Gaussian 16, Revision C.01,
 Gaussian 16:  ES64L-G16RevC.01  3-Jul-2019

 ----------------------------------------------------------------------
 #p freq=raman scale=0.967 pop=(nbo,full,hirshfeld) guess=read geom=all
 check b3lyp/6-311+G(d,p) int=grid=ultrafine EmpiricalDispersion=GD3BJ
 SCRF=(Solvent=ethanol) scf=(xqc,intrep,maxconventionalcycle=350) nosym
 m
 ----------------------------------------------------------------------

 Structure from the checkpoint file:  "/scratch1/svicchi/G09-672258.pbs02/02-freq/bentriz-CO2_binding-site_index-6-freq.chk"
 ------------------------------------
 bentriz-CO2_binding-site_index-6.gjf
 ------------------------------------
 Charge = -1 Multiplicity = 1

                          Input orientation:
 ---------------------------------------------------------------------
 Center     Atomic      Atomic             Coordinates (Angstroms)
 Number     Number       Type             X           Y           Z
 ---------------------------------------------------------------------
      1          6           0       -1.859410   -0.997446   -0.000002
      2          6           0       -1.779073   -2.410759   -0.000001
      3          6           0       -0.731001   -0.194055   -0.000001
      4          6           0        0.508154   -0.851673    0.000001
      5          6           0        0.594062   -2.256971    0.000002
      6          6           0       -0.557177   -3.058788    0.000001
      7          7           0        1.818205   -0.437616    0.000001
      8          7           0        2.635063   -1.519990    0.000002
      9          7           0        1.928525   -2.606466    0.000002
     10          1           0       -0.785960    0.883671   -0.000002
     11          1           0       -2.837442   -0.530406   -0.000003
     12          1           0       -2.694881   -2.989601   -0.000002
     13          1           0       -0.482573   -4.139270    0.000001
     14          6           0        2.364608    0.976020    0.000000
     15          8           0        1.465314    1.826126    0.000015
     16          8           0        3.594348    1.051678   -0.000015
 ---------------------------------------------------------------------

 SCF Done:  E(RB3LYP) =  -584.200722224     A.U. after    3 cycles

 Alpha  occ. eigenvalues --  -19.07654 -19.07641 -14.38737 -14.38070 -14.34316
 Alpha  occ. eigenvalues --  -10.29836 -10.21830 -10.20361 -10.18622 -10.18398
 Alpha  occ. eigenvalues --  -10.18324 -10.18104  -1.10134  -1.04950  -0.96978
 Alpha  occ. eigenvalues --   -0.89822  -0.86842  -0.77750  -0.75725  -0.65495
 Alpha  occ. eigenvalues --   -0.64173  -0.62159  -0.56111  -0.52620  -0.48182
 Alpha  occ. eigenvalues --   -0.47819  -0.46886  -0.45313  -0.44204  -0.42233
 Alpha  occ. eigenvalues --   -0.41333  -0.38136  -0.37802  -0.36269  -0.34049
 Alpha  occ. eigenvalues --   -0.31874  -0.28943  -0.27153  -0.27051  -0.25672
 Alpha  occ. eigenvalues --   -0.25469  -0.24322
 Alpha virt. eigenvalues --   -0.05392  -0.00751   0.01056   0.01577   0.02332
 Alpha virt. eigenvalues --    0.03027   0.04546   0.05020   0.05062   0.05690
 Alpha virt. eigenvalues --    0.07247   0.07645   0.07873   0.08043   0.08875

 Mulliken charges:
               1
     1  C   -0.360544
     2  C   -0.214674
     3  C   -0.211682
     4  C    0.170346
     5  C   -0.001996
     6  C   -0.032471
     7  N   -0.064970
     8  N   -0.076353
     9  N   -0.215623
    10  H    0.161427
    11  H    0.150480
    12  H    0.148663
    13  H    0.146620
    14  C    0.391230
    15  O   -0.507405
    16  O   -0.483047
 Sum of Mulliken charges =  -1.00000

 Dipole moment (field-independent basis, Debye):
    X=            -15.3336    Y=             -2.3635    Z=             -0.0000  Tot=             15.5147
 Quadrupole moment (field-independent basis, Debye-Ang):
   XX=           -114.6510   YY=            -89.3387   ZZ=            -71.6985
   XY=             -0.8437   XZ=              0.0001   YZ=             -0.0000

  Exact polarizability:     205.771      10.350     174.045      -0.000       0.000      80.859
 Approx polarizability:     247.969       2.043     208.857      -0.000       0.000      93.229

 Summary of Natural Population Analysis:

                                       Natural Population
                Natural  -----------------------------------------------
    Atom  No    Charge         Core      Valence    Rydberg      Total
 -----------------------------------------------------------------------
      C    1   -0.19991      1.99919     4.18296    0.01776     6.19991
      C    2   -0.22323      1.99919     4.20552    0.01852     6.22323
      C    3   -0.21987      1.99908     4.20321    0.01758     6.21987
      C    4    0.13030      1.99892     3.85037    0.02040     5.86970
      C    5    0.06684      1.99894     3.90859    0.02563     5.93316
      C    6   -0.20054      1.99907     4.18351    0.01796     6.20054
      N    7   -0.29559      1.99918     5.25900    0.03741     7.29559
      N    8   -0.05239      1.99956     5.02004    0.03279     7.05239
      N    9   -0.29899      1.99945     5.26717    0.03237     7.29899
      H   10    0.24151      0.00000     0.75653    0.00196     0.75849
      H   11    0.21579      0.00000     0.78291    0.00130     0.78421
      H   12    0.21626      0.00000     0.78239    0.00135     0.78374
      H   13    0.22444      0.00000     0.77357    0.00199     0.77556
      C   14    0.91801      1.99960     3.02225    0.06013     5.08199
      O   15   -0.76950      1.99975     6.75442    0.01532     8.76950
      O   16   -0.75313      1.99975     6.74051    0.01288     8.75313
 =======================================================================
   * Total *   -1.00000     23.99168    59.69296    0.31536    84.00000

                      1                      2                      3
                      A                      A                      A
 Frequencies --     34.9820                94.7473               177.0074
 Red. masses --     12.9242                 5.9451                 8.6758
 Frc consts  --      0.0093                 0.0314                 0.1602
 IR Inten    --      0.6517                 4.8258                 6.7174
 Raman Activ --      0.2006                 5.8758                 0.5117

                      4                      5                      6
                      A                      A                      A
 Frequencies --    224.9217               279.6949               350.5464
 Red. masses --      6.0539                 6.6441                12.6958
 Frc consts  --      0.1804                 0.3062                 0.9192
 IR Inten    --      0.3114                 5.8502                15.7902
 Raman Activ --      0.6647                 0.0265                10.0403

                      7                      8                      9
                      A                      A                      A
 Frequencies --    391.1300               433.7665               516.9085
 Red. masses --      7.6498                 2.9371                 8.4453
 Frc consts  --      0.6895                 0.3256                 1.3295
 IR Inten    --     15.8388                 8.1119                 3.2555
 Raman Activ --      2.1515                 1.2072                 2.3957

                     10                     11                     12
                      A                      A                      A
 Frequencies --    580.1481               603.3470               658.5853
 Red. masses --      3.9344                 8.9170                 7.3195
 Frc consts  --      0.7802                 1.9125                 1.8705
 IR Inten    --      2.9540                20.3921                 0.8379
 Raman Activ --      0.9301                 4.0374                16.6235

                     13                     14                     15
                      A                      A                      A
 Frequencies --    671.8720               744.7810               750.3112
 Red. masses --      7.8155                13.0949                 2.6569
 Frc consts  --      2.0786                 4.2797                 0.8813
 IR Inten    --      8.2214               641.4152                31.3414
 Raman Activ --      0.0961                 7.9501                 2.0498

                     16                     17                     18
                      A                      A                      A
 Frequencies --    766.6758               787.9594               806.0285
 Red. masses --      1.8306                11.7536                 5.7958
 Frc consts  --      0.6340                 4.2996                 2.2185
 IR Inten    --     79.2888                43.8584                11.9171
 Raman Activ --      3.8146                 1.7364                83.4329

                     19                     20                     21
                      A                      A                      A
 Frequencies --    867.6014               929.9141               966.6201
 Red. masses --      1.3923                 7.0226                 1.3495
 Frc consts  --      0.6175                 3.5779                 0.7429
 IR Inten    --      0.2758                33.9266                 2.2083
 Raman Activ --      4.7114                 2.7710                 3.8379

                     22                     23                     24
                      A                      A                      A
 Frequencies --   1000.0779              1016.6621              1082.1265
 Red. masses --      1.2756                 2.0173                10.1704
 Frc consts  --      0.7517                 1.2285                 7.0169
 IR Inten    --      0.1962                42.6703               265.2005
 Raman Activ --      1.5597                46.5742                99.2654

                     25                     26                     27
                      A                      A                      A
 Frequencies --   1106.1998              1138.1866              1165.3268
 Red. masses --      6.3178                 1.3632                 1.2991
 Frc consts  --      4.5549                 1.0405                 1.0394
 IR Inten    --    203.1515                31.8362                 6.0012
 Raman Activ --      7.2450                34.6934                12.0709

                     28                     29                     30
                      A                      A                      A
 Frequencies --   1262.8322              1280.6306              1308.2605
 Red. masses --      4.6241                 5.3518                 2.2222
 Frc consts  --      4.3448                 5.1713                 2.2409
 IR Inten    --     76.9476               544.2403                16.0716
 Raman Activ --    129.5857                38.0647                50.1021

                     31                     32                     33
                      A                      A                      A
 Frequencies --   1324.1270              1357.1471              1408.1576
 Red. masses --      6.4231                 4.2931                 6.8667
 Frc consts  --      6.6352                 4.6589                 8.0223
 IR Inten    --     68.3569                15.3052                 4.5580
 Raman Activ --     12.1434                97.7746               234.1717

                     34                     35                     36
                      A                      A                      A
 Frequencies --   1467.9736              1515.4946              1617.9482
 Red. masses --      2.5969                 3.0530                 7.2637
 Frc consts  --      3.2972                 4.1312                11.2031
 IR Inten    --     43.7627                 4.6770                 0.9558
 Raman Activ --     28.5101                10.4379               142.8374

                     37                     38                     39
                      A                      A                      A
 Frequencies --   1646.7387              1750.9945              3172.8218
 Red. masses --      7.1297                12.7583                 1.0873
 Frc consts  --     11.3913                23.0470                 6.4488
 IR Inten    --      4.7084              1132.8910                 5.4938
 Raman Activ --      3.3325                23.6879               143.2968

                     40                     41                     42
                      A                      A                      A
 Frequencies --   3184.7091              3197.1208              3236.0588
 Red. masses --      1.0906                 1.0963                 1.0936
 Frc consts  --      6.5170                 6.6026                 6.7473
 IR Inten    --     18.1842                21.5004                 4.3371
 Raman Activ --    248.5888               462.9145               233.0455

 - Thermochemistry -
 -------------------
 Temperature   298.150 Kelvin.  Pressure   1.00000 Atm.
 Thermochemistry will use frequencies scaled by 0.9670.

 Molecular mass:   162.03035 amu.
 Principal axes and moments of inertia in atomic units:
                           1         2         3
     Eigenvalues --   863.108062297.422783160.53083
           X            0.77912  -0.62688   0.00000
           Y            0.62688   0.77912  -0.00000
           Z           -0.00000   0.00000   1.00000
 This molecule is an asymmetric top.
 Rotational symmetry number  1.
 Warning -- assumption of classical behavior for rotation
           may cause significant error
 Rotational temperatures (Kelvin)      0.10035     0.03770     0.02740
 Rotational constants (GHZ):           2.09098     0.78555     0.57102
 Zero-point vibrational energy     271134.8 (Joules/Mol)
                                   64.80277 (Kcal/Mol)
 Warning -- explicit consideration of  11 degrees of freedom as
           vibrations may cause significant error
 Vibrational temperatures:     48.67   131.82   246.27   312.93   389.14
          (Kelvin)            487.71   544.18   603.50   719.17   807.16
                              839.44   916.29   934.77  1036.21  1043.91
                             1066.67  1096.29  1121.43  1207.09  1293.79
                             1344.86  1391.41  1414.48  1505.56  1539.05
                             1583.56  1621.32  1756.98  1781.74  1820.18
                             1842.25  1888.20  1959.17  2042.39  2108.50
                             2251.05  2291.10  2436.15  4414.34  4430.88
                             4448.15  4502.32

 Zero-point correction=                           0.103270 (Hartree/Particle)
 Thermal correction to Energy=                    0.112101
 Thermal correction to Enthalpy=                  0.113045
 Thermal correction to Gibbs Free Energy=         0.068099
 Sum of electronic and zero-point Energies=           -584.097452
 Sum of electronic and thermal Energies=              -584.088621
 Sum of electronic and thermal Enthalpies=            -584.087677
 Sum of electronic and thermal Free Energies=         -584.132623

                     E (Thermal)             CV                S
                      KCal/Mol        Cal/Mol-Kelvin    Cal/Mol-Kelvin
 Total                   70.345             33.726             94.597
 Electronic               0.000              0.000              0.000
 Translational            0.889              2.981             41.157
 Rotational               0.889              2.981             30.217
 Vibrational             68.567             27.764             23.223
 Vibration     1          0.594              1.983              5.591
 Vibration     2          0.602              1.955              3.625
 Vibration     3          0.626              1.878              2.423
 Vibration     4          0.646              1.814              1.980
 Vibration     5          0.674              1.728              1.593
 Vibration     6          0.719              1.598              1.217
 Vibration     7          0.748              1.517              1.046
 Vibration     8          0.782              1.428              0.894
 Vibration     9          0.855              1.250              0.658
 Vibration    10          0.917              1.116              0.522
 Vibration    11          0.940              1.067              0.479

 Optimization completed.
    -- Stationary point found.
 Normal termination of Gaussian 16 at Mon Jun  5 12:12:34 2023.
