 Gaussian 16, Revision C.02,
 Gaussian 16:  ES64L-G16RevC.02  7-Dec-2021

 ----------------------------------------------------------------------
 #p freq=raman scale=0.967 guess=read geom=allcheck b3lyp/6-311+G(d,p)
 int=grid=ultrafine EmpiricalDispersion=GD3BJ SCRF=(Solvent=ethanol) sc
 f=(xqc,intrep,maxconventionalcycle=350) nosymm
 ----------------------------------------------------------------------

 Structure from the checkpoint file:  "/scratch1/svicchi/G09-1912005.pbs02/02-freq/IMIDOH-CO2_binding-site_index-1-freq.chk"
 -------------------------------
 IMIDOH-CO2_binding-site_index-1
 -------------------------------
 Charge = -1 Multiplicity = 1

                          Input orientation:
 ---------------------------------------------------------------------
 Center     Atomic      Atomic             Coordinates (Angstroms)
 Number     Number       Type             X           Y           Z
 ---------------------------------------------------------------------
      1          6           0       -2.170637    3.444659    0.045544
      2          7           0       -1.226218    2.465460   -0.186632
      3          6           0       -1.940466    1.303090   -0.489492
      4          6           0       -3.253579    1.654291   -0.420813
      5          1           0       -1.436108    0.380784   -0.714401
      6          7           0       -3.396560    3.002510   -0.083868
      7          1           0       -4.117434    1.030803   -0.590496
      8          8           0       -1.812239    4.686885    0.363319
      9          1           0       -0.805739    4.649958    0.367861
     10          6           0        0.221590    2.641800   -0.120312
     11          8           0        0.908994    1.647071   -0.357748
     12          8           0        0.571791    3.818619    0.178615
 ---------------------------------------------------------------------

 SCF Done:  E(RB3LYP) =  -489.760999670     A.U. after    1 cycles

 Alpha  occ. eigenvalues --  -19.14655 -19.08969 -19.08194 -14.36120 -14.29110
 Alpha  occ. eigenvalues --  -10.30571 -10.28064 -10.19057 -10.18478  -1.09330
 Alpha  occ. eigenvalues --   -1.05588  -0.99106  -0.97298  -0.87196  -0.73356
 Alpha  occ. eigenvalues --   -0.63397  -0.60626  -0.57988  -0.49588  -0.48252
 Alpha  occ. eigenvalues --   -0.47401  -0.44605  -0.43277  -0.42654  -0.41312
 Alpha  occ. eigenvalues --   -0.38317  -0.35397  -0.30142  -0.28124  -0.28097
 Alpha  occ. eigenvalues --   -0.27843  -0.26158  -0.21409
 Alpha virt. eigenvalues --    0.00342   0.01111   0.02850   0.03538   0.04721
 Alpha virt. eigenvalues --    0.05482   0.05607   0.06457   0.06977   0.08458
 Alpha virt. eigenvalues --    0.09206   0.09968   0.09986   0.10215   0.11565

 Mulliken charges:
               1
     1  C    0.258478
     2  N   -0.195688
     3  C   -0.166742
     4  C   -0.156871
     5  H    0.152265
     6  N   -0.370145
     7  H    0.136943
     8  O   -0.383176
     9  H    0.335177
    10  C    0.472111
    11  O   -0.517233
    12  O   -0.565117
 Sum of Mulliken charges =  -1.00000

 Dipole moment (field-independent basis, Debye):
    X=              3.0071    Y=            -15.4835    Z=             -0.0680  Tot=             15.7729
 Quadrupole moment (field-independent basis, Debye-Ang):
   XX=            -82.9946   YY=           -109.8921   ZZ=            -54.4820
   XY=             19.2544   XZ=              2.0399   YZ=             -1.5146

  Exact polarizability:     119.665      -2.195     108.253       0.364      12.239      62.331
 Approx polarizability:     131.794      -5.216     127.889      -0.312      15.514      69.564

                      1                      2                      3
                      A                      A                      A
 Frequencies --    104.0212               138.7645               262.6660
 Red. masses --     12.0294                 8.4892                 7.1694
 Frc consts  --      0.0767                 0.0963                 0.2914
 IR Inten    --      4.8255                12.0504                27.8228
 Raman Activ --      0.2925                 2.3408                 1.2422

                      4                      5                      6
                      A                      A                      A
 Frequencies --    306.9709               391.4262               477.2373
 Red. masses --      6.6701                 7.2541                11.1276
 Frc consts  --      0.3703                 0.6548                 1.4932
 IR Inten    --      0.9546                19.3119                 2.7051
 Raman Activ --      1.1514                 1.9683                 5.9179

                      7                      8                      9
                      A                      A                      A
 Frequencies --    595.7479               620.0361               691.2682
 Red. masses --      6.4373                 3.8887                 1.5619
 Frc consts  --      1.3461                 0.8808                 0.4397
 IR Inten    --     11.2375                 0.3189               108.2379
 Raman Activ --      7.1271                 1.7268                 9.6917

                     10                     11                     12
                      A                      A                      A
 Frequencies --    740.0274               744.3668               791.8474
 Red. masses --     10.4752                 3.5874                10.4450
 Frc consts  --      3.3799                 1.1711                 3.8587
 IR Inten    --     90.9688                12.4544                25.2157
 Raman Activ --     11.0067                 1.2738                 1.4451

                     13                     14                     15
                      A                      A                      A
 Frequencies --    811.1968               852.9745               855.0354
 Red. masses --     12.1456                 1.1620                 1.2137
 Frc consts  --      4.7089                 0.4981                 0.5228
 IR Inten    --    198.5341                76.4516                93.1982
 Raman Activ --     17.4262                 5.9393                 7.2467

                     16                     17                     18
                      A                      A                      A
 Frequencies --    935.9443              1065.1335              1117.2142
 Red. masses --      5.9340                 1.4177                 2.5628
 Frc consts  --      3.0626                 0.9477                 1.8847
 IR Inten    --      6.4939                81.5530                49.7267
 Raman Activ --     15.5670                14.4128                 9.9003

                     19                     20                     21
                      A                      A                      A
 Frequencies --   1190.8424              1224.0245              1262.1168
 Red. masses --      7.5212                 3.3826                 5.1530
 Frc consts  --      6.2841                 2.9859                 4.8363
 IR Inten    --    226.5291               252.6396               207.0555
 Raman Activ --     39.3110                55.0965                28.3988

                     22                     23                     24
                      A                      A                      A
 Frequencies --   1327.0736              1378.3374              1519.8506
 Red. masses --      4.7919                 1.9612                 2.6782
 Frc consts  --      4.9722                 2.1952                 3.6450
 IR Inten    --    144.0334                87.6518               857.2561
 Raman Activ --     45.1442                 8.5280                 7.4001

                     25                     26                     27
                      A                      A                      A
 Frequencies --   1544.1446              1589.9692              1721.5422
 Red. masses --      4.8882                 5.9711                 5.7808
 Frc consts  --      6.8672                 8.8936                10.0942
 IR Inten    --     84.9595               680.0971               804.5694
 Raman Activ --    132.1845                15.6632                27.2613

                     28                     29                     30
                      A                      A                      A
 Frequencies --   3010.8476              3237.1785              3290.6973
 Red. masses --      1.0712                 1.0946                 1.1020
 Frc consts  --      5.7211                 6.7585                 7.0308
 IR Inten    --   1151.9461                10.6957                 5.6864
 Raman Activ --    136.4067               182.8401               163.0364

 - Thermochemistry -
 -------------------
 Temperature   298.150 Kelvin.  Pressure   1.00000 Atm.
 Thermochemistry will use frequencies scaled by 0.9670.

 Molecular mass:   127.01437 amu.
 Principal axes and moments of inertia in atomic units:
                           1         2         3
     Eigenvalues --   596.858251056.724711653.58209
           X            0.99935  -0.03306  -0.01462
           Y            0.02851   0.96952  -0.24336
           Z            0.02222   0.24279   0.96983
 This molecule is an asymmetric top.
 Rotational symmetry number  1.
 Warning -- assumption of classical behavior for rotation
           may cause significant error
 Rotational temperatures (Kelvin)      0.14512     0.08196     0.05238
 Rotational constants (GHZ):           3.02374     1.70786     1.09141
 Zero-point vibrational energy     195488.7 (Joules/Mol)
                                   46.72291 (Kcal/Mol)
 Warning -- explicit consideration of   8 degrees of freedom as
           vibrations may cause significant error
 Vibrational temperatures:    144.72   193.06   365.45   427.09   544.59
          (Kelvin)            663.98   828.86   862.65   961.76  1029.60
                             1035.64  1101.70  1128.62  1186.74  1189.61
                             1302.18  1481.92  1554.38  1656.82  1702.98
                             1755.98  1846.35  1917.68  2114.56  2148.36
                             2212.12  2395.18  4188.98  4503.88  4578.34

 Zero-point correction=                           0.074458 (Hartree/Particle)
 Thermal correction to Energy=                    0.081376
 Thermal correction to Enthalpy=                  0.082320
 Thermal correction to Gibbs Free Energy=         0.042720
 Sum of electronic and zero-point Energies=           -489.686542
 Sum of electronic and thermal Energies=              -489.679623
 Sum of electronic and thermal Enthalpies=            -489.678679
 Sum of electronic and thermal Free Energies=         -489.718279

                     E (Thermal)             CV                S
                      KCal/Mol        Cal/Mol-Kelvin    Cal/Mol-Kelvin
 Total                   51.064             25.658             83.345
 Electronic               0.000              0.000              0.000
 Translational            0.889              2.981             40.431
 Rotational               0.889              2.981             28.435
 Vibrational             49.287             19.696             14.479
 Vibration     1          0.604              1.949              3.443
 Vibration     2          0.613              1.919              2.885
 Vibration     3          0.665              1.756              1.703
 Vibration     4          0.690              1.680              1.435
 Vibration     5          0.749              1.516              1.045
 Vibration     6          0.819              1.335              0.762
 Vibration     7          0.933              1.083              0.493
 Vibration     8          0.958              1.033              0.450

 Optimization completed.
    -- Stationary point found.
 Normal termination of Gaussian 16 at Tue Jan 23 12:46:34 2024.
