 Gaussian 16, Revision C.01,
 Gaussian 16:  ES64L-G16RevC.01  3-Jul-2019

 ----------------------------------------------------------------------
 #p freq=raman scale=0.967 pop=(nbo,full,hirshfeld) guess=read geom=all
 check b3lyp/6-311+G(d,p) int=grid=ultrafine EmpiricalDispersion=GD3BJ
 SCRF=(Solvent=ethanol) scf=(xqc,intrep,maxconventionalcycle=350) nosym
 m
 ----------------------------------------------------------------------

 Structure from the checkpoint file:  "/scratch1/svicchi/G09-659900.pbs02/02-freq/TDA-CO2_binding-site_index-10-freq.chk"
 ---------------------------------
 TDA-CO2_binding-site_index-10.gjf
 ---------------------------------
 Charge = -1 Multiplicity = 1

                          Input orientation:
 ---------------------------------------------------------------------
 Center     Atomic      Atomic             Coordinates (Angstroms)
 Number     Number       Type             X           Y           Z
 ---------------------------------------------------------------------
      1          6           0       -3.596169    0.772229    0.261070
      2          6           0       -2.453396    1.643178   -0.251507
      3          6           0       -1.081065    0.985166   -0.060393
      4          1           0       -2.458358    2.602806    0.277630
      5          1           0       -2.612073    1.859340   -1.314127
      6          7           0       -4.899537    1.420936    0.035625
      7          1           0       -3.418520    0.536936    1.321531
      8          1           0       -3.600838   -0.181235   -0.277688
      9          1           0       -4.949108    2.283204    0.572084
     10          1           0       -5.648398    0.829261    0.383735
     11          7           0        0.041217    1.799953   -0.500393
     12          1           0       -1.051222    0.036659   -0.608221
     13          1           0       -0.927337    0.754995    0.995084
     14          1           0        0.090555    1.964192   -1.496218
     15          6           0        0.495810    2.906365    0.256838
     16          8           0        0.203185    2.930536    1.483342
     17          8           0        1.193211    3.752525   -0.376060
 ---------------------------------------------------------------------

 SCF Done:  E(RB3LYP) =  -418.124852228     A.U. after    1 cycles

 Alpha  occ. eigenvalues --  -19.04251 -19.04108 -14.29273 -14.29193 -10.25787
 Alpha  occ. eigenvalues --  -10.18689 -10.18309 -10.15434  -1.01705  -0.91957
 Alpha  occ. eigenvalues --   -0.88254  -0.87265  -0.74897  -0.64892  -0.58759
 Alpha  occ. eigenvalues --   -0.53680  -0.48709  -0.46753  -0.46123  -0.43084
 Alpha  occ. eigenvalues --   -0.41570  -0.40242  -0.37858  -0.37737  -0.36119
 Alpha  occ. eigenvalues --   -0.34387  -0.32885  -0.25273  -0.24661  -0.23830
 Alpha  occ. eigenvalues --   -0.22224  -0.21793
 Alpha virt. eigenvalues --    0.00868   0.01831   0.02755   0.03463   0.04824
 Alpha virt. eigenvalues --    0.05724   0.06206   0.07241   0.07918   0.08994
 Alpha virt. eigenvalues --    0.09116   0.09627   0.10402   0.11701   0.12787

 Mulliken charges:
               1
     1  C   -0.349797
     2  C   -0.046266
     3  C   -0.356345
     4  H    0.135021
     5  H    0.131207
     6  N   -0.510110
     7  H    0.128882
     8  H    0.137951
     9  H    0.227970
    10  H    0.245754
    11  N   -0.326813
    12  H    0.131270
    13  H    0.155686
    14  H    0.243488
    15  C    0.295457
    16  O   -0.615711
    17  O   -0.627644
 Sum of Mulliken charges =  -1.00000

 Dipole moment (field-independent basis, Debye):
    X=             -4.6575    Y=            -17.6132    Z=             -2.1459  Tot=             18.3445
 Quadrupole moment (field-independent basis, Debye-Ang):
   XX=            -58.8224   YY=           -114.8536   ZZ=            -59.6664
   XY=            -14.7230   XZ=             -8.1763   YZ=             -6.8003

  Exact polarizability:     102.634      11.875     100.333      -3.409      -0.502     101.189
 Approx polarizability:      99.123       9.717     105.290      -5.295      -1.010     110.872

 Summary of Natural Population Analysis:

                                       Natural Population
                Natural  -----------------------------------------------
    Atom  No    Charge         Core      Valence    Rydberg      Total
 -----------------------------------------------------------------------
      C    1   -0.18350      1.99930     4.16617    0.01803     6.18350
      C    2   -0.40607      1.99927     4.39069    0.01611     6.40607
      C    3   -0.18405      1.99927     4.16234    0.02244     6.18405
      H    4    0.19595      0.00000     0.80143    0.00261     0.80405
      H    5    0.19167      0.00000     0.80541    0.00293     0.80833
      N    6   -0.87202      1.99954     5.85063    0.02185     7.87202
      H    7    0.16169      0.00000     0.83546    0.00285     0.83831
      H    8    0.17999      0.00000     0.81761    0.00240     0.82001
      H    9    0.35433      0.00000     0.64276    0.00291     0.64567
      H   10    0.35916      0.00000     0.63844    0.00240     0.64084
      N   11   -0.71907      1.99938     5.69699    0.02270     7.71907
      H   12    0.18233      0.00000     0.81554    0.00212     0.81767
      H   13    0.20096      0.00000     0.79615    0.00290     0.79904
      H   14    0.37633      0.00000     0.62122    0.00245     0.62367
      C   15    0.88323      1.99960     3.05412    0.06305     5.11677
      O   16   -0.85414      1.99977     6.84081    0.01356     8.85414
      O   17   -0.86680      1.99978     6.85302    0.01401     8.86680
 =======================================================================
   * Total *   -1.00000     15.99591    47.78878    0.21531    64.00000

                      1                      2                      3
                      A                      A                      A
 Frequencies --     57.7083                71.5275                83.1563
 Red. masses --      5.2566                 6.0280                 2.0572
 Frc consts  --      0.0103                 0.0182                 0.0084
 IR Inten    --     18.9279                 4.8520                12.8484
 Raman Activ --      1.7840                 3.3668                 0.8500

                      4                      5                      6
                      A                      A                      A
 Frequencies --    131.3243               206.2221               258.8833
 Red. masses --      2.5290                 2.9717                 1.2534
 Frc consts  --      0.0257                 0.0745                 0.0495
 IR Inten    --      1.8297                 0.2677                59.3585
 Raman Activ --      0.1716                 0.3022                 0.0658

                      7                      8                      9
                      A                      A                      A
 Frequencies --    278.5301               373.3484               461.8088
 Red. masses --      2.4810                 5.8385                 2.8880
 Frc consts  --      0.1134                 0.4795                 0.3629
 IR Inten    --     30.7920                 5.6647                 9.1892
 Raman Activ --      0.9609                 6.0343                 0.5938

                     10                     11                     12
                      A                      A                      A
 Frequencies --    531.0240               594.0332               684.4801
 Red. masses --      1.5938                 4.8804                 2.1895
 Frc consts  --      0.2648                 1.0147                 0.6044
 IR Inten    --    172.1294                29.5392                46.1974
 Raman Activ --      1.5862                 1.6638                 1.1843

                     13                     14                     15
                      A                      A                      A
 Frequencies --    761.5847               815.8329               841.6801
 Red. masses --      1.2480                11.1763                 1.3505
 Frc consts  --      0.4265                 4.3828                 0.5637
 IR Inten    --     29.6057                45.3025                61.5996
 Raman Activ --      1.3552                 0.5903                 4.8014

                     16                     17                     18
                      A                      A                      A
 Frequencies --    893.1979               957.0955               984.3396
 Red. masses --      1.5138                 2.5644                 2.4026
 Frc consts  --      0.7116                 1.3840                 1.3716
 IR Inten    --    154.6518                19.2813                 8.5082
 Raman Activ --      2.6187                18.1000                12.2577

                     19                     20                     21
                      A                      A                      A
 Frequencies --   1025.7516              1073.8267              1126.7089
 Red. masses --      3.1393                 2.7179                 1.9712
 Frc consts  --      1.9461                 1.8465                 1.4743
 IR Inten    --     15.3801                33.7807                16.2205
 Raman Activ --      6.1900                20.2854                 3.8533

                     22                     23                     24
                      A                      A                      A
 Frequencies --   1151.3491              1186.4331              1253.9894
 Red. masses --      2.7433                 1.4953                 1.3438
 Frc consts  --      2.1426                 1.2401                 1.2450
 IR Inten    --     71.7747                11.1031                18.9346
 Raman Activ --      2.2739                 2.7537                 2.5900

                     25                     26                     27
                      A                      A                      A
 Frequencies --   1306.9335              1316.4447              1328.3626
 Red. masses --      2.4902                 1.5367                 1.0752
 Frc consts  --      2.5061                 1.5691                 1.1179
 IR Inten    --    427.4130               157.3429                14.6110
 Raman Activ --     11.5308                 7.8774                30.8747

                     28                     29                     30
                      A                      A                      A
 Frequencies --   1337.2204              1402.9052              1423.7233
 Red. masses --      1.3427                 1.4375                 1.4470
 Frc consts  --      1.4146                 1.6670                 1.7281
 IR Inten    --     87.5475                27.3475                22.2037
 Raman Activ --      4.8629                 7.8952                 1.8502

                     31                     32                     33
                      A                      A                      A
 Frequencies --   1444.5373              1474.8404              1487.2290
 Red. masses --      1.3731                 1.2342                 1.1026
 Frc consts  --      1.6882                 1.5817                 1.4369
 IR Inten    --    161.1760                99.0805                17.9117
 Raman Activ --     23.8830                23.6619                 8.4829

                     34                     35                     36
                      A                      A                      A
 Frequencies --   1513.8877              1594.0529              1646.5132
 Red. masses --      1.0910                 5.2493                 1.0867
 Frc consts  --      1.4732                 7.8589                 1.7358
 IR Inten    --      4.4600              1071.3739                49.8365
 Raman Activ --      8.6961                 5.2264                 4.9456

                     37                     38                     39
                      A                      A                      A
 Frequencies --   2955.1237              3011.9700              3018.4007
 Red. masses --      1.0717                 1.0587                 1.0698
 Frc consts  --      5.5143                 5.6586                 5.7427
 IR Inten    --    112.2797                22.9696               112.3241
 Raman Activ --    299.2145               418.0004               163.1113

                     40                     41                     42
                      A                      A                      A
 Frequencies --   3030.8217              3054.3666              3090.7925
 Red. masses --      1.0890                 1.0996                 1.0965
 Frc consts  --      5.8937                 6.0438                 6.1719
 IR Inten    --     17.3848               103.2219                52.5184
 Raman Activ --    242.1467                73.8383                85.2234

                     43                     44                     45
                      A                      A                      A
 Frequencies --   3484.9040              3557.1148              3594.4516
 Red. masses --      1.0504                 1.0923                 1.0757
 Frc consts  --      7.5158                 8.1434                 8.1882
 IR Inten    --      0.2521                 1.9502                 8.1841
 Raman Activ --    262.5831               148.5698               184.8766

 - Thermochemistry -
 -------------------
 Temperature   298.150 Kelvin.  Pressure   1.00000 Atm.
 Thermochemistry will use frequencies scaled by 0.9670.

 Molecular mass:   117.06640 amu.
 Principal axes and moments of inertia in atomic units:
                           1         2         3
     Eigenvalues --   356.013402224.714272290.04871
           X            0.92770  -0.27960   0.24738
           Y            0.37298   0.66587  -0.64614
           Z            0.01594   0.69169   0.72202
 This molecule is an asymmetric top.
 Rotational symmetry number  1.
 Rotational temperatures (Kelvin)      0.24329     0.03893     0.03782
 Rotational constants (GHZ):           5.06931     0.81122     0.78808
 Zero-point vibrational energy     357901.4 (Joules/Mol)
                                   85.54049 (Kcal/Mol)
 Warning -- explicit consideration of  11 degrees of freedom as
           vibrations may cause significant error
 Vibrational temperatures:     80.29    99.52   115.70   182.71   286.92
          (Kelvin)            360.18   387.52   519.44   642.51   738.81
                              826.48   952.32  1059.59  1135.07  1171.03
                             1242.70  1331.60  1369.51  1427.13  1494.01
                             1567.59  1601.87  1650.68  1744.67  1818.33
                             1831.57  1848.15  1860.47  1951.86  1980.82
                             2009.78  2051.94  2069.18  2106.27  2217.80
                             2290.79  4111.46  4190.55  4199.49  4216.77
                             4249.53  4300.21  4848.54  4949.00  5000.95

 Zero-point correction=                           0.136317 (Hartree/Particle)
 Thermal correction to Energy=                    0.145533
 Thermal correction to Enthalpy=                  0.146477
 Thermal correction to Gibbs Free Energy=         0.101148
 Sum of electronic and zero-point Energies=           -417.988535
 Sum of electronic and thermal Energies=              -417.979320
 Sum of electronic and thermal Enthalpies=            -417.978375
 Sum of electronic and thermal Free Energies=         -418.023704

                     E (Thermal)             CV                S
                      KCal/Mol        Cal/Mol-Kelvin    Cal/Mol-Kelvin
 Total                   91.323             31.862             95.402
 Electronic               0.000              0.000              0.000
 Translational            0.889              2.981             40.188
 Rotational               0.889              2.981             28.985
 Vibrational             89.546             25.900             26.229
 Vibration     1          0.596              1.975              4.600
 Vibration     2          0.598              1.969              4.177
 Vibration     3          0.600              1.962              3.881
 Vibration     4          0.611              1.926              2.991
 Vibration     5          0.638              1.841              2.138
 Vibration     6          0.663              1.762              1.728
 Vibration     7          0.674              1.730              1.600
 Vibration     8          0.735              1.553              1.118
 Vibration     9          0.806              1.368              0.806
 Vibration    10          0.869              1.220              0.625
 Vibration    11          0.931              1.087              0.496

 Optimization completed.
    -- Stationary point found.
 Normal termination of Gaussian 16 at Fri Jun  2 15:51:48 2023.
