 Gaussian 16, Revision C.01,
 Gaussian 16:  ES64L-G16RevC.01  3-Jul-2019

 ----------------------------------------------------------------------
 #p freq=raman scale=0.967 pop=(nbo,full,hirshfeld) guess=read geom=all
 check b3lyp/6-311+G(d,p) int=grid=ultrafine EmpiricalDispersion=GD3BJ
 SCRF=(Solvent=ethanol) scf=(xqc,intrep,maxconventionalcycle=350) nosym
 m
 ----------------------------------------------------------------------

 Structure from the checkpoint file:  "/scratch1/svicchi/G09-659812.pbs02/02-freq/bentriz-H_dissociation-site_index-6-freq.chk"
 ---------------------------------------
 bentriz-H_dissociation-site_index-6.gjf
 ---------------------------------------
 Charge =  0 Multiplicity = 1

                          Input orientation:
 ---------------------------------------------------------------------
 Center     Atomic      Atomic             Coordinates (Angstroms)
 Number     Number       Type             X           Y           Z
 ---------------------------------------------------------------------
      1          6           0       -1.811852   -0.957867   -0.000000
      2          6           0       -1.774494   -2.374278    0.000000
      3          6           0       -0.658876   -0.192503   -0.000000
      4          6           0        0.551115   -0.898340   -0.000000
      5          6           0        0.602242   -2.305902   -0.000000
      6          6           0       -0.577580   -3.066222   -0.000000
      7          7           0        1.865151   -0.536822    0.000000
      8          7           0        2.665340   -1.626958    0.000000
      9          7           0        1.926627   -2.690884    0.000000
     10          1           0       -0.690908    0.889092   -0.000000
     11          1           0       -2.774632   -0.461160    0.000000
     12          1           0       -2.709425   -2.921051    0.000000
     13          1           0       -0.542474   -4.148313   -0.000000
     14          1           0        2.279348    0.384227   -0.000000
 ---------------------------------------------------------------------

 SCF Done:  E(RB3LYP) =  -396.008826197     A.U. after    1 cycles

 Alpha  occ. eigenvalues --  -14.40851 -14.39860 -14.35573 -10.23499 -10.21581
 Alpha  occ. eigenvalues --  -10.19857 -10.19557 -10.19421 -10.18955  -1.11573
 Alpha  occ. eigenvalues --   -0.92361  -0.88151  -0.79184  -0.76975  -0.66660
 Alpha  occ. eigenvalues --   -0.65400  -0.63575  -0.56613  -0.53840  -0.48818
 Alpha  occ. eigenvalues --   -0.48224  -0.46575  -0.45889  -0.39076  -0.38470
 Alpha  occ. eigenvalues --   -0.37473  -0.35600  -0.34070  -0.29545  -0.26898
 Alpha  occ. eigenvalues --   -0.25571
 Alpha virt. eigenvalues --   -0.06260  -0.01037   0.00585   0.00675   0.01818
 Alpha virt. eigenvalues --    0.02631   0.04351   0.04651   0.05516   0.06105
 Alpha virt. eigenvalues --    0.07622   0.08229   0.08634   0.08747   0.10932

 Mulliken charges:
               1
     1  C   -0.161265
     2  C   -0.190096
     3  C   -0.183817
     4  C    0.141495
     5  C    0.039384
     6  C   -0.168417
     7  N   -0.208101
     8  N   -0.023452
     9  N   -0.226103
    10  H    0.152687
    11  H    0.156891
    12  H    0.154422
    13  H    0.151850
    14  H    0.364523
 Sum of Mulliken charges =  -0.00000

 Dipole moment (field-independent basis, Debye):
    X=             -3.5658    Y=              4.4420    Z=             -0.0000  Tot=              5.6962
 Quadrupole moment (field-independent basis, Debye-Ang):
   XX=            -57.1523   YY=            -57.8080   ZZ=            -55.0811
   XY=             16.0669   XZ=             -0.0000   YZ=             -0.0000

  Exact polarizability:     164.699       0.521     129.995       0.000       0.000      64.225
 Approx polarizability:     202.607       1.984     169.235       0.000       0.000      74.644

 Summary of Natural Population Analysis:

                                       Natural Population
                Natural  -----------------------------------------------
    Atom  No    Charge         Core      Valence    Rydberg      Total
 -----------------------------------------------------------------------
      C    1   -0.18840      1.99920     4.17121    0.01799     6.18840
      C    2   -0.21804      1.99919     4.20055    0.01830     6.21804
      C    3   -0.22623      1.99908     4.21040    0.01675     6.22623
      C    4    0.11788      1.99895     3.86342    0.01975     5.88212
      C    5    0.06754      1.99895     3.90696    0.02655     5.93246
      C    6   -0.19293      1.99907     4.17574    0.01812     6.19293
      N    7   -0.34021      1.99930     5.31885    0.02206     7.34021
      N    8   -0.06697      1.99960     5.03048    0.03689     7.06697
      N    9   -0.29002      1.99945     5.25577    0.03479     7.29002
      H   10    0.23155      0.00000     0.76680    0.00164     0.76845
      H   11    0.22053      0.00000     0.77821    0.00127     0.77947
      H   12    0.22025      0.00000     0.77844    0.00131     0.77975
      H   13    0.22863      0.00000     0.76938    0.00200     0.77137
      H   14    0.43643      0.00000     0.56148    0.00209     0.56357
 =======================================================================
   * Total *    0.00000     17.99279    43.78770    0.21951    62.00000

                      1                      2                      3
                      A                      A                      A
 Frequencies --    215.5698               260.7549               414.5812
 Red. masses --      5.6449                 4.8656                 5.1492
 Frc consts  --      0.1546                 0.1949                 0.5214
 IR Inten    --      0.5889                 7.2898                 9.5579
 Raman Activ --      0.7332                 0.0610                 1.2054

                      4                      5                      6
                      A                      A                      A
 Frequencies --    431.9833               529.3789               547.0865
 Red. masses --      2.9009                 1.6444                 7.6110
 Frc consts  --      0.3189                 0.2715                 1.3422
 IR Inten    --     12.5939                79.9317                 0.4348
 Raman Activ --      1.4637                 0.2544                 8.7388

                      7                      8                      9
                      A                      A                      A
 Frequencies --    582.2350               640.3128               696.0053
 Red. masses --      2.6905                 6.6582                 3.2533
 Frc consts  --      0.5374                 1.6084                 0.9285
 IR Inten    --     25.6350                 0.2730                52.9623
 Raman Activ --      0.5724                20.1018                 0.0275

                     10                     11                     12
                      A                      A                      A
 Frequencies --    747.8040               764.3263               796.6151
 Red. masses --      2.7160                 1.7990                 5.3391
 Frc consts  --      0.8949                 0.6192                 1.9962
 IR Inten    --     38.6475                75.5807                13.9564
 Raman Activ --      0.6222                 2.6420                66.3298

                     13                     14                     15
                      A                      A                      A
 Frequencies --    860.5883               914.1235               965.5431
 Red. masses --      1.3850                 5.9796                 1.3472
 Frc consts  --      0.6044                 2.9440                 0.7400
 IR Inten    --      0.0889                 0.0978                 1.3649
 Raman Activ --      3.8913                 1.7748                 3.8521

                     16                     17                     18
                      A                      A                      A
 Frequencies --   1000.9663              1006.1739              1028.4852
 Red. masses --      1.2841                 3.3093                 3.3171
 Frc consts  --      0.7580                 1.9739                 2.0673
 IR Inten    --      0.0216                 0.6232                31.9150
 Raman Activ --      1.1858                 0.6894                83.2446

                     19                     20                     21
                      A                      A                      A
 Frequencies --   1058.9028              1141.2574              1164.7933
 Red. masses --      4.0031                 1.4257                 1.2232
 Frc consts  --      2.6446                 1.0941                 0.9778
 IR Inten    --     50.4392                 5.8038                15.2358
 Raman Activ --     57.4093                17.2395                14.0273

                     22                     23                     24
                      A                      A                      A
 Frequencies --   1243.1715              1283.2948              1295.4786
 Red. masses --      2.5825                 4.0583                 2.6486
 Frc consts  --      2.3515                 3.9377                 2.6189
 IR Inten    --     76.2064                34.5716                 7.0218
 Raman Activ --     83.1724                 9.7982                72.4195

                     25                     26                     27
                      A                      A                      A
 Frequencies --   1329.5442              1408.6929              1420.5195
 Red. masses --      2.5903                 5.7572                 1.9452
 Frc consts  --      2.6978                 6.7312                 2.3127
 IR Inten    --     45.8356                 0.2945                 6.6836
 Raman Activ --     12.6485               197.6626                73.6239

                     28                     29                     30
                      A                      A                      A
 Frequencies --   1484.5285              1531.9463              1625.5741
 Red. masses --      2.3532                 2.9482                 6.4848
 Frc consts  --      3.0555                 4.0766                10.0963
 IR Inten    --     12.3459                 0.6920                 6.4090
 Raman Activ --     33.6990                29.1657                96.7528

                     31                     32                     33
                      A                      A                      A
 Frequencies --   1659.7496              3179.1438              3190.2159
 Red. masses --      6.6597                 1.0872                 1.0899
 Frc consts  --     10.8092                 6.4740                 6.5354
 IR Inten    --     14.9456                 2.6535                10.0814
 Raman Activ --     12.1759               120.4560               241.5460

                     34                     35                     36
                      A                      A                      A
 Frequencies --   3202.1970              3207.7360              3634.5688
 Red. masses --      1.0953                 1.0961                 1.0835
 Frc consts  --      6.6173                 6.6452                 8.4334
 IR Inten    --     15.1432                 7.1736               203.1316
 Raman Activ --    170.8182               540.5685               253.7987

 - Thermochemistry -
 -------------------
 Temperature   298.150 Kelvin.  Pressure   1.00000 Atm.
 Thermochemistry will use frequencies scaled by 0.9670.

 Molecular mass:   119.04835 amu.
 Principal axes and moments of inertia in atomic units:
                           1         2         3
     Eigenvalues --   449.375521075.053401524.42893
           X            0.99980  -0.02024  -0.00000
           Y            0.02024   0.99980  -0.00000
           Z            0.00000   0.00000   1.00000
 This molecule is an asymmetric top.
 Rotational symmetry number  1.
 Warning -- assumption of classical behavior for rotation
           may cause significant error
 Rotational temperatures (Kelvin)      0.19274     0.08057     0.05682
 Rotational constants (GHZ):           4.01611     1.67875     1.18388
 Zero-point vibrational energy     268744.3 (Joules/Mol)
                                   64.23143 (Kcal/Mol)
 Warning -- explicit consideration of   8 degrees of freedom as
           vibrations may cause significant error
 Vibrational temperatures:    299.92   362.79   576.81   601.02   736.52
          (Kelvin)            761.16   810.06   890.87   968.35  1040.42
                             1063.41  1108.33  1197.33  1271.82  1343.36
                             1392.64  1399.89  1430.93  1473.25  1587.83
                             1620.57  1729.62  1785.44  1802.40  1849.79
                             1959.91  1976.36  2065.42  2131.39  2261.66
                             2309.21  4423.13  4438.54  4455.21  4462.91
                             5056.77

 Zero-point correction=                           0.102359 (Hartree/Particle)
 Thermal correction to Energy=                    0.108454
 Thermal correction to Enthalpy=                  0.109398
 Thermal correction to Gibbs Free Energy=         0.072141
 Sum of electronic and zero-point Energies=           -395.906467
 Sum of electronic and thermal Energies=              -395.900372
 Sum of electronic and thermal Enthalpies=            -395.899428
 Sum of electronic and thermal Free Energies=         -395.936685

                     E (Thermal)             CV                S
                      KCal/Mol        Cal/Mol-Kelvin    Cal/Mol-Kelvin
 Total                   68.056             24.985             78.414
 Electronic               0.000              0.000              0.000
 Translational            0.889              2.981             40.238
 Rotational               0.889              2.981             28.090
 Vibrational             66.279             19.023             10.087
 Vibration     1          0.642              1.828              2.057
 Vibration     2          0.664              1.759              1.715
 Vibration     3          0.767              1.468              0.959
 Vibration     4          0.781              1.432              0.900
 Vibration     5          0.867              1.224              0.629
 Vibration     6          0.884              1.186              0.589
 Vibration     7          0.919              1.111              0.518
 Vibration     8          0.979              0.991              0.418

 Optimization completed.
    -- Stationary point found.
 Normal termination of Gaussian 16 at Fri Jun  2 11:42:11 2023.
