 Gaussian 16, Revision C.01,
 Gaussian 16:  ES64L-G16RevC.01  3-Jul-2019

 ----------------------------------------------------------------------
 #p freq=raman scale=0.967 pop=(nbo,full,hirshfeld) guess=read geom=all
 check b3lyp/6-311+G(d,p) int=grid=ultrafine EmpiricalDispersion=GD3BJ
 SCRF=(Solvent=ethanol) scf=(xqc,intrep,maxconventionalcycle=350) nosym
 m
 ----------------------------------------------------------------------

 Structure from the checkpoint file:  "/scratch1/svicchi/G09-659779.pbs02/02-freq/2ethylimidazolide-CO2_binding-site_index-1-freq.chk"
 ----------------------------------------------
 2ethylimidazolide-CO2_binding-site_index-1.gjf
 ----------------------------------------------
 Charge = -1 Multiplicity = 1

                          Input orientation:
 ---------------------------------------------------------------------
 Center     Atomic      Atomic             Coordinates (Angstroms)
 Number     Number       Type             X           Y           Z
 ---------------------------------------------------------------------
      1          7           0       -1.620061   -0.349917   -0.068695
      2          7           0        0.563431   -0.384327    0.359610
      3          6           0       -0.607935   -1.114005    0.313110
      4          6           0       -0.743123   -2.578187    0.584731
      5          6           0       -1.094719    0.914454   -0.274541
      6          6           0        0.245169    0.911652   -0.016984
      7          1           0       -1.713878    1.740450   -0.590302
      8          1           0        0.999520    1.676547   -0.050557
      9          6           0       -0.256702   -3.451004   -0.583354
     10          1           0       -1.804998   -2.762499    0.764415
     11          1           0       -0.189408   -2.840391    1.485763
     12          1           0       -0.809410   -3.219677   -1.498037
     13          1           0       -0.403660   -4.510409   -0.355799
     14          1           0        0.806025   -3.285591   -0.765868
     15          6           0        1.938907   -0.804431    0.766852
     16          8           0        2.040801   -1.974251    1.164309
     17          8           0        2.789491    0.093816    0.649309
 ---------------------------------------------------------------------

 SCF Done:  E(RB3LYP) =  -493.157734516     A.U. after    2 cycles

 Alpha  occ. eigenvalues --  -19.06729 -19.06702 -14.35215 -14.28850 -10.28892
 Alpha  occ. eigenvalues --  -10.22104 -10.18397 -10.17581 -10.16557 -10.15290
 Alpha  occ. eigenvalues --   -1.05226  -0.99315  -0.95718  -0.85588  -0.78227
 Alpha  occ. eigenvalues --   -0.71593  -0.63260  -0.60854  -0.58419  -0.51874
 Alpha  occ. eigenvalues --   -0.47295  -0.45431  -0.44357  -0.42915  -0.42613
 Alpha  occ. eigenvalues --   -0.41700  -0.39903  -0.39117  -0.36471  -0.35005
 Alpha  occ. eigenvalues --   -0.34110  -0.29001  -0.27373  -0.26232  -0.26129
 Alpha  occ. eigenvalues --   -0.24183  -0.22176
 Alpha virt. eigenvalues --    0.00045   0.01211   0.02663   0.03257   0.03465
 Alpha virt. eigenvalues --    0.04832   0.05380   0.05462   0.06200   0.06355
 Alpha virt. eigenvalues --    0.07762   0.08567   0.08608   0.09123   0.10121

 Mulliken charges:
               1
     1  N   -0.246382
     2  N   -0.088640
     3  C   -0.002995
     4  C   -0.368805
     5  C   -0.194905
     6  C    0.032297
     7  H    0.129592
     8  H    0.153505
     9  C   -0.457315
    10  H    0.148570
    11  H    0.169224
    12  H    0.137220
    13  H    0.138143
    14  H    0.149207
    15  C    0.360784
    16  O   -0.522515
    17  O   -0.536985
 Sum of Mulliken charges =  -1.00000

 Dipole moment (field-independent basis, Debye):
    X=             -7.0799    Y=              3.8225    Z=             -3.2901  Tot=              8.6926
 Quadrupole moment (field-independent basis, Debye-Ang):
   XX=            -98.2224   YY=            -66.9906   ZZ=            -66.3397
   XY=              6.7106   XZ=            -10.0936   YZ=              3.6305

  Exact polarizability:     139.724       2.393     144.360      10.063     -10.179      90.917
 Approx polarizability:     154.374       5.177     158.548      10.029     -14.540     100.876

 Summary of Natural Population Analysis:

                                       Natural Population
                Natural  -----------------------------------------------
    Atom  No    Charge         Core      Valence    Rydberg      Total
 -----------------------------------------------------------------------
      N    1   -0.57457      1.99941     5.55228    0.02288     7.57457
      N    2   -0.49276      1.99915     5.46555    0.02805     7.49276
      C    3    0.40856      1.99924     3.55733    0.03487     5.59144
      C    4   -0.42723      1.99921     4.41332    0.01470     6.42723
      C    5   -0.09979      1.99919     4.07275    0.02785     6.09979
      C    6   -0.07399      1.99915     4.05276    0.02208     6.07399
      H    7    0.20137      0.00000     0.79724    0.00139     0.79863
      H    8    0.22935      0.00000     0.76892    0.00173     0.77065
      C    9   -0.56733      1.99935     4.55939    0.00858     6.56733
      H   10    0.20939      0.00000     0.78841    0.00221     0.79061
      H   11    0.22846      0.00000     0.76946    0.00208     0.77154
      H   12    0.19350      0.00000     0.80475    0.00176     0.80650
      H   13    0.19781      0.00000     0.80076    0.00143     0.80219
      H   14    0.20637      0.00000     0.79164    0.00199     0.79363
      C   15    0.92042      1.99959     3.02042    0.05957     5.07958
      O   16   -0.77372      1.99975     6.76082    0.01315     8.77372
      O   17   -0.78585      1.99976     6.77393    0.01216     8.78585
 =======================================================================
   * Total *   -1.00000     19.99381    53.74974    0.25645    74.00000

                      1                      2                      3
                      A                      A                      A
 Frequencies --     40.5185                92.2779               145.3221
 Red. masses --      8.0344                 2.6757                 5.3891
 Frc consts  --      0.0078                 0.0134                 0.0671
 IR Inten    --      0.2490                 3.0176                14.7212
 Raman Activ --      2.4660                 1.2926                 3.7521

                      4                      5                      6
                      A                      A                      A
 Frequencies --    170.4170               196.3254               244.8329
 Red. masses --      4.5000                 1.2318                 3.4946
 Frc consts  --      0.0770                 0.0280                 0.1234
 IR Inten    --      4.1214                 2.2298                 5.4872
 Raman Activ --      1.9554                 0.3158                 0.7654

                      7                      8                      9
                      A                      A                      A
 Frequencies --    349.6638               381.7833               424.6044
 Red. masses --      2.8227                 5.2858                 5.1583
 Frc consts  --      0.2033                 0.4539                 0.5479
 IR Inten    --      8.3285                 4.1076                10.9299
 Raman Activ --      2.2091                 1.8410                 6.4122

                     10                     11                     12
                      A                      A                      A
 Frequencies --    542.5168               637.5734               677.7473
 Red. masses --      4.8389                 3.6480                 4.2913
 Frc consts  --      0.8391                 0.8737                 1.1614
 IR Inten    --      8.4654                 1.5142                21.4837
 Raman Activ --      3.2502                 1.5210                 8.3661

                     13                     14                     15
                      A                      A                      A
 Frequencies --    736.2190               764.3600               773.1899
 Red. masses --      2.4044                 1.6685                 8.1739
 Frc consts  --      0.7678                 0.5744                 2.8791
 IR Inten    --     48.9660                94.5335               310.6504
 Raman Activ --      7.2879                 5.8014                11.1350

                     16                     17                     18
                      A                      A                      A
 Frequencies --    785.4674               802.8721               865.6830
 Red. masses --      1.3338                 9.7341                 1.3689
 Frc consts  --      0.4848                 3.6969                 0.6044
 IR Inten    --      1.3845                20.1407                 2.9599
 Raman Activ --      1.1294                 2.4370                 9.9014

                     19                     20                     21
                      A                      A                      A
 Frequencies --    938.9672               972.3532              1050.9728
 Red. masses --      5.4878                 2.3371                 1.5603
 Frc consts  --      2.8507                 1.3019                 1.0154
 IR Inten    --      0.5362                 5.0966               217.9174
 Raman Activ --     10.0562                17.0181                 3.7774

                     22                     23                     24
                      A                      A                      A
 Frequencies --   1058.1577              1081.9128              1147.6454
 Red. masses --      1.7390                 1.7304                 2.5035
 Frc consts  --      1.1472                 1.1934                 1.9427
 IR Inten    --     17.8517                 5.1238                10.0292
 Raman Activ --     12.2388                 9.8672                24.6686

                     25                     26                     27
                      A                      A                      A
 Frequencies --   1182.5561              1215.8837              1273.7312
 Red. masses --      3.2037                 3.1957                 2.2441
 Frc consts  --      2.6397                 2.7836                 2.1451
 IR Inten    --     10.2239               425.9967               148.5177
 Raman Activ --      8.7621                59.2311                 1.7474

                     28                     29                     30
                      A                      A                      A
 Frequencies --   1293.4782              1345.5675              1351.2371
 Red. masses --      2.8798                 2.2427                 1.6530
 Frc consts  --      2.8388                 2.3924                 1.7782
 IR Inten    --    435.5790                 4.1359                 9.4791
 Raman Activ --     38.5526                21.8590                10.9186

                     31                     32                     33
                      A                      A                      A
 Frequencies --   1389.9093              1435.2214              1455.0515
 Red. masses --      1.2458                 3.2508                 1.1055
 Frc consts  --      1.4180                 3.9453                 1.3790
 IR Inten    --      5.1402                11.0719                28.2734
 Raman Activ --     17.0366                23.0232                31.6601

                     34                     35                     36
                      A                      A                      A
 Frequencies --   1483.2610              1493.4540              1515.2788
 Red. masses --      1.1060                 1.1103                 3.9112
 Frc consts  --      1.4337                 1.4590                 5.2911
 IR Inten    --     18.9033                 2.9423                24.0526
 Raman Activ --     14.1866                21.8720               242.4639

                     37                     38                     39
                      A                      A                      A
 Frequencies --   1546.0801              1711.5046              3025.3889
 Red. masses --      5.2279                12.4108                 1.0357
 Frc consts  --      7.3627                21.4193                 5.5855
 IR Inten    --     14.1984              1160.1335                61.0995
 Raman Activ --      4.6228                13.4206               367.2444

                     40                     41                     42
                      A                      A                      A
 Frequencies --   3054.9538              3082.4023              3105.2619
 Red. masses --      1.0637                 1.1020                 1.0969
 Frc consts  --      5.8488                 6.1692                 6.2321
 IR Inten    --     37.4917                50.9929                29.2479
 Raman Activ --    323.2649               224.5456               216.9576

                     43                     44                     45
                      A                      A                      A
 Frequencies --   3118.6837              3227.6904              3290.7246
 Red. masses --      1.1026                 1.0949                 1.1010
 Frc consts  --      6.3183                 6.7208                 7.0247
 IR Inten    --     40.0222                16.5026                 5.1148
 Raman Activ --     39.6403               213.2098               175.4888

 - Thermochemistry -
 -------------------
 Temperature   298.150 Kelvin.  Pressure   1.00000 Atm.
 Thermochemistry will use frequencies scaled by 0.9670.

 Molecular mass:   139.05075 amu.
 Principal axes and moments of inertia in atomic units:
                           1         2         3
     Eigenvalues --  1064.999051203.863212110.17069
           X            0.92766  -0.27176  -0.25610
           Y            0.29054   0.95612   0.03782
           Z            0.23459  -0.10949   0.96591
 This molecule is an asymmetric top.
 Rotational symmetry number  1.
 Warning -- assumption of classical behavior for rotation
           may cause significant error
 Rotational temperatures (Kelvin)      0.08133     0.07195     0.04105
 Rotational constants (GHZ):           1.69459     1.49912     0.85526
 Zero-point vibrational energy     326669.7 (Joules/Mol)
                                   78.07593 (Kcal/Mol)
 Warning -- explicit consideration of  11 degrees of freedom as
           vibrations may cause significant error
 Vibrational temperatures:     56.37   128.39   202.19   237.10   273.15
          (Kelvin)            340.64   486.49   531.17   590.75   754.80
                              887.05   942.95  1024.30  1063.45  1075.74
                             1092.82  1117.03  1204.42  1306.38  1352.83
                             1462.22  1472.21  1505.26  1596.72  1645.29
                             1691.66  1772.14  1799.61  1872.08  1879.97
                             1933.78  1996.82  2024.41  2063.66  2077.84
                             2108.20  2151.06  2381.21  4209.22  4250.35
                             4288.54  4320.34  4339.02  4490.68  4578.38

 Zero-point correction=                           0.124422 (Hartree/Particle)
 Thermal correction to Energy=                    0.133639
 Thermal correction to Enthalpy=                  0.134583
 Thermal correction to Gibbs Free Energy=         0.089262
 Sum of electronic and zero-point Energies=           -493.033313
 Sum of electronic and thermal Energies=              -493.024095
 Sum of electronic and thermal Enthalpies=            -493.023151
 Sum of electronic and thermal Free Energies=         -493.068473

                     E (Thermal)             CV                S
                      KCal/Mol        Cal/Mol-Kelvin    Cal/Mol-Kelvin
 Total                   83.860             33.432             95.387
 Electronic               0.000              0.000              0.000
 Translational            0.889              2.981             40.701
 Rotational               0.889              2.981             29.382
 Vibrational             82.082             27.471             25.304
 Vibration     1          0.594              1.981              5.300
 Vibration     2          0.602              1.957              3.677
 Vibration     3          0.615              1.913              2.797
 Vibration     4          0.623              1.886              2.494
 Vibration     5          0.633              1.854              2.229
 Vibration     6          0.656              1.784              1.827
 Vibration     7          0.718              1.599              1.221
 Vibration     8          0.741              1.536              1.083
 Vibration     9          0.775              1.447              0.925
 Vibration    10          0.880              1.196              0.599
 Vibration    11          0.976              0.997              0.422

 Optimization completed.
    -- Stationary point found.
 Normal termination of Gaussian 16 at Fri Jun  2 12:50:47 2023.
