 Gaussian 16, Revision C.02,
 Gaussian 16:  ES64L-G16RevC.02  7-Dec-2021

 ----------------------------------------------------------------------
 #p freq=raman scale=0.967 guess=read geom=allcheck b3lyp/6-311+G(d,p)
 int=grid=ultrafine EmpiricalDispersion=GD3BJ SCRF=(Solvent=ethanol) sc
 f=(xqc,intrep,maxconventionalcycle=350) nosymm
 ----------------------------------------------------------------------

 Structure from the checkpoint file:  "/scratch1/svicchi/G09-1734064.pbs02/02-freq/PyrEtOH-isolated-freq.chk"
 ----------------
 PyrEtOH-isolated
 ----------------
 Charge = -1 Multiplicity = 1

                          Input orientation:
 ---------------------------------------------------------------------
 Center     Atomic      Atomic             Coordinates (Angstroms)
 Number     Number       Type             X           Y           Z
 ---------------------------------------------------------------------
      1          6           0       -0.404486    0.805663    0.026081
      2          6           0       -1.310838   -0.226007   -0.230911
      3          6           0       -0.520380   -1.359684   -0.576400
      4          1           0       -2.390787   -0.171421   -0.177687
      5          6           0        0.812250   -0.942457   -0.500267
      6          7           0        0.887313    0.377338   -0.131109
      7          1           0       -0.618810    1.827642    0.316262
      8          6           0        2.073452   -1.712387   -0.784935
      9          1           0       -0.872103   -2.347234   -0.847970
     10          1           0        1.826947   -2.669141   -1.257668
     11          1           0        2.613420   -1.946968    0.143820
     12          6           0        3.025933   -0.933779   -1.698951
     13          1           0        2.538497   -0.767482   -2.671232
     14          1           0        3.944672   -1.500857   -1.878299
     15          8           0        3.404794    0.318189   -1.120075
     16          1           0        2.570877    0.659983   -0.706120
 ---------------------------------------------------------------------

 SCF Done:  E(RB3LYP) =  -363.665015509     A.U. after    1 cycles

 Alpha  occ. eigenvalues --  -19.09060 -14.25255 -10.19783 -10.15237 -10.14562
 Alpha  occ. eigenvalues --  -10.14021 -10.12009 -10.11838  -0.99228  -0.89590
 Alpha  occ. eigenvalues --   -0.74679  -0.70550  -0.66063  -0.59683  -0.52376
 Alpha  occ. eigenvalues --   -0.48886  -0.48127  -0.46068  -0.42565  -0.41186
 Alpha  occ. eigenvalues --   -0.37746  -0.35338  -0.34317  -0.33929  -0.33518
 Alpha  occ. eigenvalues --   -0.31739  -0.25709  -0.23707  -0.19838  -0.17083
 Alpha virt. eigenvalues --    0.01376   0.02597   0.03436   0.03771   0.04825
 Alpha virt. eigenvalues --    0.05205   0.06004   0.06398   0.07027   0.07635
 Alpha virt. eigenvalues --    0.08275   0.09082   0.09513   0.10121   0.11081

 Mulliken charges:
               1
     1  C   -0.171546
     2  C   -0.293997
     3  C   -0.263090
     4  H    0.096383
     5  C    0.161210
     6  N   -0.375726
     7  H    0.089659
     8  C   -0.470048
     9  H    0.091777
    10  H    0.132096
    11  H    0.144497
    12  C   -0.272726
    13  H    0.118656
    14  H    0.130594
    15  O   -0.443235
    16  H    0.325495
 Sum of Mulliken charges =  -1.00000

 Dipole moment (field-independent basis, Debye):
    X=             -4.9182    Y=             -1.2863    Z=              1.5224  Tot=              5.3067
 Quadrupole moment (field-independent basis, Debye-Ang):
   XX=            -74.5959   YY=            -52.7811   ZZ=            -57.0091
   XY=             -6.8620   XZ=              3.6748   YZ=              3.0176

  Exact polarizability:     145.416      -1.754     128.087      -5.605       9.469     101.591
 Approx polarizability:     152.982       1.029     141.919      -2.325      11.960     106.872

                      1                      2                      3
                      A                      A                      A
 Frequencies --     47.0922               169.6358               191.7800
 Red. masses --      5.1040                 2.8085                 4.3375
 Frc consts  --      0.0067                 0.0476                 0.0940
 IR Inten    --      0.4190                 9.8874                14.2800
 Raman Activ --      5.1688                 5.5469                 1.1158

                      4                      5                      6
                      A                      A                      A
 Frequencies --    327.8523               350.1036               497.0356
 Red. masses --      3.1073                 3.2715                 2.5477
 Frc consts  --      0.1968                 0.2363                 0.3708
 IR Inten    --     12.7862                11.7903                 5.5626
 Raman Activ --      3.2738                 3.0627                 4.4930

                      7                      8                      9
                      A                      A                      A
 Frequencies --    631.8265               644.1762               695.3469
 Red. masses --      3.4246                 3.3219                 1.2068
 Frc consts  --      0.8055                 0.8122                 0.3438
 IR Inten    --      9.5006                 9.8323               193.6828
 Raman Activ --      4.2741                 2.4379                42.8853

                     10                     11                     12
                      A                      A                      A
 Frequencies --    710.5467               741.1335               803.9197
 Red. masses --      2.1095                 1.7633                 1.0947
 Frc consts  --      0.6275                 0.5707                 0.4168
 IR Inten    --      7.7388                 1.7064               149.2263
 Raman Activ --     20.3779                36.4264                 7.9814

                     13                     14                     15
                      A                      A                      A
 Frequencies --    813.6826               865.0734               912.9697
 Red. masses --      1.2649                 2.4196                 5.1614
 Frc consts  --      0.4934                 1.0668                 2.5347
 IR Inten    --      0.6204                34.0470                 1.6021
 Raman Activ --      8.4780                 7.3667                 5.8795

                     16                     17                     18
                      A                      A                      A
 Frequencies --    928.7213               971.5535              1025.6459
 Red. masses --      2.2037                 2.3048                 1.4056
 Frc consts  --      1.1199                 1.2818                 0.8712
 IR Inten    --     10.5991                 9.1137                51.3460
 Raman Activ --      5.5168                 5.4991                 2.2535

                     19                     20                     21
                      A                      A                      A
 Frequencies --   1038.1489              1070.1572              1095.2395
 Red. masses --      2.6852                 2.3022                 1.9132
 Frc consts  --      1.7051                 1.5534                 1.3521
 IR Inten    --     46.1444                65.3953                14.2954
 Raman Activ --      8.1266                 7.2498                52.3711

                     22                     23                     24
                      A                      A                      A
 Frequencies --   1170.4205              1216.8763              1232.9654
 Red. masses --      1.6690                 1.7415                 1.3180
 Frc consts  --      1.3471                 1.5194                 1.1805
 IR Inten    --     86.7981                19.9834                10.8533
 Raman Activ --      7.1576                30.5732                35.3117

                     25                     26                     27
                      A                      A                      A
 Frequencies --   1252.0716              1310.1451              1348.6310
 Red. masses --      1.9123                 3.3449                 1.4553
 Frc consts  --      1.7663                 3.3827                 1.5595
 IR Inten    --      5.3474                 2.5046                22.5671
 Raman Activ --     45.1014                82.8809                26.6764

                     28                     29                     30
                      A                      A                      A
 Frequencies --   1376.6867              1417.3160              1444.8694
 Red. masses --      1.2697                 3.6589                 2.6506
 Frc consts  --      1.4178                 4.3305                 3.2602
 IR Inten    --      3.1859                13.0866                96.6433
 Raman Activ --     21.7018               118.5782               111.4081

                     31                     32                     33
                      A                      A                      A
 Frequencies --   1461.0260              1499.7122              1506.4711
 Red. masses --      1.1310                 1.2364                 2.0662
 Frc consts  --      1.4225                 1.6384                 2.7627
 IR Inten    --      5.9442                 0.8338                55.3675
 Raman Activ --     23.0801                18.2675                59.3947

                     34                     35                     36
                      A                      A                      A
 Frequencies --   1535.9898              2956.7430              2971.9524
 Red. masses --      1.4863                 1.0702                 1.0687
 Frc consts  --      2.0661                 5.5124                 5.5614
 IR Inten    --     98.6407               113.8735               148.0307
 Raman Activ --     18.0092               520.6593               306.7031

                     37                     38                     39
                      A                      A                      A
 Frequencies --   3039.0415              3046.1633              3163.3891
 Red. masses --      1.0947                 1.0890                 1.0869
 Frc consts  --      5.9568                 5.9539                 6.4083
 IR Inten    --    195.1496                90.6338                29.2841
 Raman Activ --    500.2696               252.0049               260.0729

                     40                     41                     42
                      A                      A                      A
 Frequencies --   3177.3501              3196.8422              3233.5770
 Red. masses --      1.0920                 1.1023                 1.0718
 Frc consts  --      6.4956                 6.6376                 6.6027
 IR Inten    --     76.7965               121.4347              1113.8542
 Raman Activ --    125.4413               351.7733               244.3411

 - Thermochemistry -
 -------------------
 Temperature   298.150 Kelvin.  Pressure   1.00000 Atm.
 Thermochemistry will use frequencies scaled by 0.9670.

 Molecular mass:   110.06059 amu.
 Principal axes and moments of inertia in atomic units:
                           1         2         3
     Eigenvalues --   373.219271214.315551510.44753
           X            0.95882   0.14597   0.24363
           Y           -0.09330   0.97210  -0.21522
           Z           -0.26825   0.18362   0.94569
 This molecule is an asymmetric top.
 Rotational symmetry number  1.
 Rotational temperatures (Kelvin)      0.23207     0.07133     0.05734
 Rotational constants (GHZ):           4.83561     1.48622     1.19484
 Zero-point vibrational energy     330204.7 (Joules/Mol)
                                   78.92082 (Kcal/Mol)
 Warning -- explicit consideration of   7 degrees of freedom as
           vibrations may cause significant error
 Vibrational temperatures:     65.52   236.01   266.82   456.14   487.10
          (Kelvin)            691.52   879.06   896.24   967.43   988.58
                             1031.14  1118.49  1132.07  1203.57  1270.21
                             1292.13  1351.72  1426.98  1444.37  1488.91
                             1523.80  1628.40  1693.04  1715.42  1742.00
                             1822.80  1876.35  1915.38  1971.91  2010.24
                             2032.72  2086.55  2095.95  2137.02  4113.71
                             4134.87  4228.21  4238.12  4401.21  4420.64
                             4447.76  4498.87

 Zero-point correction=                           0.125768 (Hartree/Particle)
 Thermal correction to Energy=                    0.132988
 Thermal correction to Enthalpy=                  0.133933
 Thermal correction to Gibbs Free Energy=         0.093745
 Sum of electronic and zero-point Energies=           -363.539247
 Sum of electronic and thermal Energies=              -363.532027
 Sum of electronic and thermal Enthalpies=            -363.531083
 Sum of electronic and thermal Free Energies=         -363.571271

                     E (Thermal)             CV                S
                      KCal/Mol        Cal/Mol-Kelvin    Cal/Mol-Kelvin
 Total                   83.451             27.501             84.583
 Electronic               0.000              0.000              0.000
 Translational            0.889              2.981             40.004
 Rotational               0.889              2.981             28.017
 Vibrational             81.674             21.539             16.562
 Vibration     1          0.595              1.979              5.002
 Vibration     2          0.623              1.887              2.503
 Vibration     3          0.632              1.860              2.273
 Vibration     4          0.704              1.641              1.325
 Vibration     5          0.719              1.598              1.219
 Vibration     6          0.837              1.293              0.708
 Vibration     7          0.970              1.009              0.431

 Optimization completed.
    -- Stationary point found.
 Normal termination of Gaussian 16 at Thu Dec 14 13:31:23 2023.
