 Gaussian 16, Revision C.02,
 Gaussian 16:  ES64L-G16RevC.02  7-Dec-2021

 ----------------------------------------------------------------------
 #p freq=raman scale=0.967 guess=read geom=allcheck b3lyp/6-311+G(d,p)
 int=grid=ultrafine EmpiricalDispersion=GD3BJ SCRF=(Solvent=ethanol) sc
 f=(xqc,intrep,maxconventionalcycle=350) nosymm
 ----------------------------------------------------------------------

 Structure from the checkpoint file:  "/scratch1/svicchi/G09-1736893.pbs02/02-freq/PyrCOOCH3-CO2_binding-site_index-5-freq.chk"
 ----------------------------------
 PyrCOOCH3-CO2_binding-site_index-5
 ----------------------------------
 Charge = -1 Multiplicity = 1

                          Input orientation:
 ---------------------------------------------------------------------
 Center     Atomic      Atomic             Coordinates (Angstroms)
 Number     Number       Type             X           Y           Z
 ---------------------------------------------------------------------
      1          6           0       -0.547727    0.443199   -0.437865
      2          6           0       -1.450549   -0.358150    0.223919
      3          6           0       -0.701266   -1.358611    0.909272
      4          1           0       -2.523065   -0.238499    0.227900
      5          6           0        0.632137   -1.137447    0.626993
      6          7           0        0.721849   -0.034597   -0.203862
      7          1           0       -0.681336    1.332547   -1.028633
      8          6           0        1.764166   -1.992403    1.061140
      9          1           0       -1.085980   -2.167474    1.511407
     10          8           0        2.046096   -2.154624    2.232147
     11          8           0        2.416628   -2.732776    0.143963
     12          6           0        2.074019   -2.651025   -1.254084
     13          1           0        2.494122   -3.545744   -1.707829
     14          1           0        2.523844   -1.761538   -1.691539
     15          1           0        0.992366   -2.637523   -1.388673
     16          6           0        1.973898    0.657901   -0.602629
     17          8           0        1.812880    1.613427   -1.376498
     18          8           0        2.999663    0.170748   -0.097069
 ---------------------------------------------------------------------

 SCF Done:  E(RB3LYP) =  -626.391485902     A.U. after    2 cycles

 Alpha  occ. eigenvalues --  -19.16741 -19.11192 -19.07246 -19.07193 -14.35921
 Alpha  occ. eigenvalues --  -10.31307 -10.29243 -10.21988 -10.20530 -10.19304
 Alpha  occ. eigenvalues --  -10.16889 -10.16259  -1.10608  -1.05640  -1.02310
 Alpha  occ. eigenvalues --   -0.96985  -0.96258  -0.78198  -0.74834  -0.72399
 Alpha  occ. eigenvalues --   -0.62269  -0.60691  -0.57792  -0.55061  -0.48871
 Alpha  occ. eigenvalues --   -0.48224  -0.47314  -0.46874  -0.44497  -0.43859
 Alpha  occ. eigenvalues --   -0.42794  -0.41442  -0.41112  -0.39441  -0.38330
 Alpha  occ. eigenvalues --   -0.37993  -0.35405  -0.30330  -0.29197  -0.27723
 Alpha  occ. eigenvalues --   -0.26647  -0.25544  -0.24941  -0.22411
 Alpha virt. eigenvalues --   -0.02441   0.00903   0.01148   0.02602   0.02644
 Alpha virt. eigenvalues --    0.03249   0.04693   0.04925   0.05513   0.05557
 Alpha virt. eigenvalues --    0.06454   0.06474   0.08005   0.08577   0.08761

 Mulliken charges:
               1
     1  C    0.050747
     2  C   -0.360875
     3  C   -0.001093
     4  H    0.137581
     5  C   -0.038868
     6  N    0.066651
     7  H    0.153182
     8  C   -0.214110
     9  H    0.137939
    10  O   -0.365550
    11  O   -0.142100
    12  C   -0.305663
    13  H    0.168211
    14  H    0.176213
    15  H    0.181165
    16  C    0.384699
    17  O   -0.517761
    18  O   -0.510368
 Sum of Mulliken charges =  -1.00000

 Dipole moment (field-independent basis, Debye):
    X=            -12.8766    Y=             -1.4230    Z=             -2.6871  Tot=             13.2307
 Quadrupole moment (field-independent basis, Debye-Ang):
   XX=           -106.4471   YY=            -83.2381   ZZ=            -85.5435
   XY=             -0.4474   XZ=             -6.9161   YZ=             17.8498

  Exact polarizability:     157.112      -8.384     134.523      -1.220     -25.870     132.498
 Approx polarizability:     175.347     -10.257     149.196       2.682     -32.933     152.882

                      1                      2                      3
                      A                      A                      A
 Frequencies --     49.2626                84.4114               119.6549
 Red. masses --      8.4211                 6.8773                 5.7676
 Frc consts  --      0.0120                 0.0289                 0.0487
 IR Inten    --      6.4350                 5.9948                 3.0424
 Raman Activ --      6.7064                 7.2113                 4.2068

                      4                      5                      6
                      A                      A                      A
 Frequencies --    142.6281               152.5396               166.7862
 Red. masses --      2.1903                 6.4185                 3.1689
 Frc consts  --      0.0263                 0.0880                 0.0519
 IR Inten    --      7.5476                 5.8746                 5.6649
 Raman Activ --      1.0730                 3.3406                 0.9202

                      7                      8                      9
                      A                      A                      A
 Frequencies --    206.0804               263.4428               307.8037
 Red. masses --      1.7071                 6.2031                 4.3411
 Frc consts  --      0.0427                 0.2536                 0.2423
 IR Inten    --      4.3640                 2.7860                 1.3734
 Raman Activ --      1.2379                 3.3131                 2.3012

                     10                     11                     12
                      A                      A                      A
 Frequencies --    382.3425               424.1962               509.8611
 Red. masses --      7.5852                10.4856                 5.4642
 Frc consts  --      0.6533                 1.1117                 0.8369
 IR Inten    --      9.2123                 3.0244                 1.4026
 Raman Activ --      2.3392                 6.5130                 3.4755

                     13                     14                     15
                      A                      A                      A
 Frequencies --    576.2755               615.9572               675.0713
 Red. masses --      8.1060                 3.1806                 8.0328
 Frc consts  --      1.5860                 0.7110                 2.1568
 IR Inten    --      9.5333                13.5942                 7.7535
 Raman Activ --      1.9554                 6.8211                19.2530

                     16                     17                     18
                      A                      A                      A
 Frequencies --    693.4993               739.5197               749.1584
 Red. masses --      4.4754                 1.2843                 5.1372
 Frc consts  --      1.2681                 0.4138                 1.6987
 IR Inten    --      9.7357               116.5085                37.0976
 Raman Activ --      1.9924                11.2508                 8.8143

                     19                     20                     21
                      A                      A                      A
 Frequencies --    772.6681               795.9985               831.2308
 Red. masses --     10.3276                 6.3688                 1.7493
 Frc consts  --      3.6328                 2.3776                 0.7121
 IR Inten    --    349.2220                34.5208                24.3469
 Raman Activ --     17.1528                 8.2284                10.0497

                     22                     23                     24
                      A                      A                      A
 Frequencies --    888.4562               910.8678               998.0362
 Red. masses --      1.3444                 5.2567                 2.6663
 Frc consts  --      0.6253                 2.5697                 1.5648
 IR Inten    --      3.5667                 5.5889                83.8127
 Raman Activ --      3.4014                15.4299                 4.3757

                     25                     26                     27
                      A                      A                      A
 Frequencies --   1040.1665              1062.3706              1109.2594
 Red. masses --      1.9206                 1.6038                 4.3665
 Frc consts  --      1.2243                 1.0664                 3.1656
 IR Inten    --     47.8390               144.3099               220.5858
 Raman Activ --      4.5488                12.7433                 5.1089

                     28                     29                     30
                      A                      A                      A
 Frequencies --   1164.7807              1177.0032              1204.8184
 Red. masses --      1.3205                 2.0596                 2.2420
 Frc consts  --      1.0555                 1.6811                 1.9175
 IR Inten    --      1.1740                69.5768               353.1588
 Raman Activ --      2.0856                 6.8973                41.0307

                     31                     32                     33
                      A                      A                      A
 Frequencies --   1228.4658              1278.3185              1306.1184
 Red. masses --      2.0411                 3.7942                 5.6446
 Frc consts  --      1.8149                 3.6530                 5.6734
 IR Inten    --    137.6907               937.8958               159.6471
 Raman Activ --     31.1253                75.6876                 8.0136

                     34                     35                     36
                      A                      A                      A
 Frequencies --   1377.4310              1432.8557              1461.4394
 Red. masses --      8.9288                 3.4653                 1.7009
 Frc consts  --      9.9812                 4.1918                 2.1404
 IR Inten    --     19.2259                12.0982                 3.6785
 Raman Activ --     13.5478                40.4575               100.4327

                     37                     38                     39
                      A                      A                      A
 Frequencies --   1478.2418              1481.1074              1503.8860
 Red. masses --      1.8639                 1.1763                 1.0500
 Frc consts  --      2.3998                 1.5204                 1.3991
 IR Inten    --     32.3975                42.1938                42.0715
 Raman Activ --    153.3242                62.9439                16.4278

                     40                     41                     42
                      A                      A                      A
 Frequencies --   1559.2817              1710.5001              1723.9686
 Red. masses --      5.1075                12.4592                12.6703
 Frc consts  --      7.3166                21.4777                22.1869
 IR Inten    --     66.3407              1653.9553               301.3825
 Raman Activ --     16.2788                37.1271               158.6884

                     43                     44                     45
                      A                      A                      A
 Frequencies --   3057.3073              3141.2656              3155.3753
 Red. masses --      1.0294                 1.1063                 1.1071
 Frc consts  --      5.6690                 6.4316                 6.4945
 IR Inten    --     42.3571                19.8820                21.2780
 Raman Activ --    304.3807                82.0890               139.1621

                     46                     47                     48
                      A                      A                      A
 Frequencies --   3227.2444              3240.6607              3277.7732
 Red. masses --      1.0914                 1.0993                 1.1000
 Frc consts  --      6.6972                 6.8020                 6.9632
 IR Inten    --      7.6428                 5.3923                 3.7944
 Raman Activ --    178.4403               277.3757               194.5180

 - Thermochemistry -
 -------------------
 Temperature   298.150 Kelvin.  Pressure   1.00000 Atm.
 Thermochemistry will use frequencies scaled by 0.9670.

 Molecular mass:   168.02968 amu.
 Principal axes and moments of inertia in atomic units:
                           1         2         3
     Eigenvalues --  1458.909231837.103832561.12250
           X           -0.38057   0.89705   0.22464
           Y            0.84355   0.23721   0.48183
           Z           -0.37894  -0.37287   0.84698
 This molecule is an asymmetric top.
 Rotational symmetry number  1.
 Warning -- assumption of classical behavior for rotation
           may cause significant error
 Rotational temperatures (Kelvin)      0.05937     0.04715     0.03382
 Rotational constants (GHZ):           1.23705     0.98238     0.70467
 Zero-point vibrational energy     320750.9 (Joules/Mol)
                                   76.66130 (Kcal/Mol)
 Warning -- explicit consideration of  14 degrees of freedom as
           vibrations may cause significant error
 Vibrational temperatures:     68.54   117.44   166.48   198.44   212.23
          (Kelvin)            232.05   286.72   366.53   428.25   531.95
                              590.18   709.37   801.77   856.98   939.22
                              964.86  1028.89  1042.30  1075.01  1107.47
                             1156.49  1236.11  1267.29  1388.57  1447.18
                             1478.07  1543.31  1620.56  1637.56  1676.26
                             1709.16  1778.52  1817.20  1916.42  1993.53
                             2033.30  2056.67  2060.66  2092.35  2169.42
                             2379.81  2398.55  4253.62  4370.43  4390.07
                             4490.06  4508.72  4560.36

 Zero-point correction=                           0.122168 (Hartree/Particle)
 Thermal correction to Energy=                    0.133083
 Thermal correction to Enthalpy=                  0.134027
 Thermal correction to Gibbs Free Energy=         0.084827
 Sum of electronic and zero-point Energies=           -626.269318
 Sum of electronic and thermal Energies=              -626.258403
 Sum of electronic and thermal Enthalpies=            -626.257459
 Sum of electronic and thermal Free Energies=         -626.306659

                     E (Thermal)             CV                S
                      KCal/Mol        Cal/Mol-Kelvin    Cal/Mol-Kelvin
 Total                   83.511             39.322            103.550
 Electronic               0.000              0.000              0.000
 Translational            0.889              2.981             41.265
 Rotational               0.889              2.981             30.308
 Vibrational             81.733             33.360             31.977
 Vibration     1          0.595              1.978              4.913
 Vibration     2          0.600              1.962              3.851
 Vibration     3          0.608              1.936              3.171
 Vibration     4          0.614              1.915              2.833
 Vibration     5          0.617              1.905              2.704
 Vibration     6          0.622              1.890              2.535
 Vibration     7          0.637              1.841              2.140
 Vibration     8          0.665              1.755              1.697
 Vibration     9          0.691              1.678              1.430
 Vibration    10          0.742              1.534              1.081
 Vibration    11          0.774              1.448              0.926
 Vibration    12          0.849              1.265              0.676
 Vibration    13          0.913              1.124              0.529
 Vibration    14          0.953              1.041              0.457

 Optimization completed.
    -- Stationary point found.
 Normal termination of Gaussian 16 at Thu Dec 14 16:20:47 2023.
