 Gaussian 16, Revision C.02,
 Gaussian 16:  ES64L-G16RevC.02  7-Dec-2021

 ----------------------------------------------------------------------
 #p freq=raman scale=0.967 guess=read geom=allcheck b3lyp/6-311+G(d,p)
 int=grid=ultrafine EmpiricalDispersion=GD3BJ SCRF=(Solvent=ethanol) sc
 f=(xqc,intrep,maxconventionalcycle=350) nosymm
 ----------------------------------------------------------------------

 Structure from the checkpoint file:  "/scratch1/svicchi/G09-1912018.pbs02/02-freq/IMIDCHO-CO2_binding-site_index-5-freq.chk"
 --------------------------------
 IMIDCHO-CO2_binding-site_index-5
 --------------------------------
 Charge = -1 Multiplicity = 1

                          Input orientation:
 ---------------------------------------------------------------------
 Center     Atomic      Atomic             Coordinates (Angstroms)
 Number     Number       Type             X           Y           Z
 ---------------------------------------------------------------------
      1          6           0       -2.113516    3.388427    0.434654
      2          7           0       -1.718662    2.180053    0.840953
      3          6           0       -2.139569    1.306804   -0.113674
      4          6           0       -2.800025    1.984672   -1.119995
      5          1           0       -1.954172    0.245951   -0.040446
      6          7           0       -2.786144    3.304131   -0.776083
      7          1           0       -3.270121    1.655206   -2.029540
      8          6           0       -1.848045    4.624563    1.170052
      9          1           0       -2.218652    5.538181    0.691344
     10          8           0       -1.256203    4.650960    2.240872
     11          6           0       -3.435867    4.388168   -1.636154
     12          8           0       -3.916024    3.942598   -2.681707
     13          8           0       -3.381831    5.524289   -1.155769
 ---------------------------------------------------------------------

 SCF Done:  E(RB3LYP) =  -527.859776227     A.U. after    2 cycles

 Alpha  occ. eigenvalues --  -19.11970 -19.08103 -19.08063 -14.37371 -14.31242
 Alpha  occ. eigenvalues --  -10.30282 -10.25795 -10.23217 -10.20694 -10.19541
 Alpha  occ. eigenvalues --   -1.06743  -1.04606  -1.01211  -0.97469  -0.87731
 Alpha  occ. eigenvalues --   -0.76463  -0.65901  -0.62196  -0.59692  -0.53726
 Alpha  occ. eigenvalues --   -0.48346  -0.47305  -0.46559  -0.44396  -0.43944
 Alpha  occ. eigenvalues --   -0.43009  -0.41387  -0.41287  -0.38427  -0.30616
 Alpha  occ. eigenvalues --   -0.29445  -0.28299  -0.27514  -0.26826  -0.25014
 Alpha  occ. eigenvalues --   -0.24333
 Alpha virt. eigenvalues --   -0.07203   0.01146   0.01661   0.02860   0.03276
 Alpha virt. eigenvalues --    0.04743   0.05024   0.05450   0.06261   0.06549
 Alpha virt. eigenvalues --    0.07700   0.08957   0.09019   0.09550   0.10725

 Mulliken charges:
               1
     1  C    0.186467
     2  N   -0.224152
     3  C   -0.129115
     4  C    0.016783
     5  H    0.144062
     6  N   -0.134345
     7  H    0.168925
     8  C   -0.209125
     9  H    0.170251
    10  O   -0.373394
    11  C    0.411575
    12  O   -0.505780
    13  O   -0.522151
 Sum of Mulliken charges =  -1.00000

 Dipole moment (field-independent basis, Debye):
    X=             12.9105    Y=            -22.0755    Z=              1.2008  Tot=             25.6018
 Quadrupole moment (field-independent basis, Debye-Ang):
   XX=           -103.9829   YY=           -162.9560   ZZ=            -89.5373
   XY=             63.9801   XZ=            -21.4831   YZ=             12.2880

  Exact polarizability:      81.863       1.296     141.493      35.776      22.353     131.473
 Approx polarizability:      94.053       5.658     166.331      42.779      34.394     156.380

                      1                      2                      3
                      A                      A                      A
 Frequencies --     28.3917               114.0833               153.8313
 Red. masses --     11.5486                 3.6359                 7.0909
 Frc consts  --      0.0055                 0.0279                 0.0989
 IR Inten    --      0.2333                33.4083                 9.0446
 Raman Activ --      0.8461                 4.8576                 3.1177

                      4                      5                      6
                      A                      A                      A
 Frequencies --    202.8526               250.3839               259.9609
 Red. masses --     10.2541                 3.3904                 7.6742
 Frc consts  --      0.2486                 0.1252                 0.3056
 IR Inten    --     10.4760                 6.8796                 4.9922
 Raman Activ --      0.6850                 2.0677                 3.8719

                      7                      8                      9
                      A                      A                      A
 Frequencies --    368.3770               422.0947               612.4024
 Red. masses --      9.9725                12.8227                 7.3117
 Frc consts  --      0.7973                 1.3460                 1.6156
 IR Inten    --     27.1381                 5.3005                41.1028
 Raman Activ --     11.1342                12.2714                 2.3545

                     10                     11                     12
                      A                      A                      A
 Frequencies --    632.5212               698.4796               739.4661
 Red. masses --      3.5201                 8.2248                12.6190
 Frc consts  --      0.8298                 2.3642                 4.0655
 IR Inten    --      0.5679                 3.6178               382.5898
 Raman Activ --      0.6611                 0.6718                21.7607

                     13                     14                     15
                      A                      A                      A
 Frequencies --    787.4445               809.6553               810.7276
 Red. masses --      3.7175                 1.6143                 5.1833
 Frc consts  --      1.3581                 0.6235                 2.0073
 IR Inten    --     90.4882                31.9996               292.1748
 Raman Activ --      4.7657                12.6600                22.5695

                     16                     17                     18
                      A                      A                      A
 Frequencies --    893.1257               944.6388              1035.1474
 Red. masses --      1.4157                 6.3936                 1.7175
 Frc consts  --      0.6653                 3.3615                 1.0843
 IR Inten    --      1.0948                19.7911                 0.7612
 Raman Activ --      2.7657                22.6564                 1.9090

                     19                     20                     21
                      A                      A                      A
 Frequencies --   1043.0622              1134.9886              1188.7620
 Red. masses --      1.6796                 2.7190                 2.1684
 Frc consts  --      1.0766                 2.0637                 1.8054
 IR Inten    --    128.8857                14.4319               255.0427
 Raman Activ --      4.9467                19.5852                92.0925

                     22                     23                     24
                      A                      A                      A
 Frequencies --   1215.8806              1288.5552              1334.8837
 Red. masses --      7.9620                 5.0531                 3.3595
 Frc consts  --      6.9351                 4.9432                 3.5271
 IR Inten    --    444.6913               205.3408               182.0868
 Raman Activ --    198.6403               114.4181                38.8171

                     25                     26                     27
                      A                      A                      A
 Frequencies --   1395.7241              1432.9250              1456.1023
 Red. masses --      3.1699                 2.3838                 3.3988
 Frc consts  --      3.6382                 2.8838                 4.2458
 IR Inten    --    166.0037               144.8572               227.8906
 Raman Activ --    329.8874               243.7898               168.8925

                     28                     29                     30
                      A                      A                      A
 Frequencies --   1516.7287              1698.8794              1754.4895
 Red. masses --      5.2925                 8.2572                12.0820
 Frc consts  --      7.1735                14.0414                21.9124
 IR Inten    --     37.6455               500.2600              1159.8159
 Raman Activ --     11.7405               556.4782                14.5431

                     31                     32                     33
                      A                      A                      A
 Frequencies --   3059.4292              3232.5809              3287.5081
 Red. masses --      1.0880                 1.0955                 1.1005
 Frc consts  --      6.0002                 6.7449                 7.0079
 IR Inten    --     24.3532                13.3630                 6.6987
 Raman Activ --    164.9144               230.1635               211.2815

 - Thermochemistry -
 -------------------
 Temperature   298.150 Kelvin.  Pressure   1.00000 Atm.
 Thermochemistry will use frequencies scaled by 0.9670.

 Molecular mass:   139.01437 amu.
 Principal axes and moments of inertia in atomic units:
                           1         2         3
     Eigenvalues --   872.491351395.999962267.91842
           X            0.50263  -0.05428   0.86280
           Y           -0.10739   0.98638   0.12462
           Z            0.85781   0.15529  -0.48995
 This molecule is an asymmetric top.
 Rotational symmetry number  1.
 Warning -- assumption of classical behavior for rotation
           may cause significant error
 Rotational temperatures (Kelvin)      0.09927     0.06204     0.03819
 Rotational constants (GHZ):           2.06849     1.29279     0.79577
 Zero-point vibrational energy     207088.8 (Joules/Mol)
                                   49.49542 (Kcal/Mol)
 Warning -- explicit consideration of  10 degrees of freedom as
           vibrations may cause significant error
 Vibrational temperatures:     39.50   158.72   214.03   282.23   348.36
          (Kelvin)            361.68   512.52   587.26   852.03   880.02
                              971.79  1028.82  1095.57  1126.47  1127.96
                             1242.60  1314.27  1440.20  1451.21  1579.11
                             1653.92  1691.65  1792.76  1857.22  1941.87
                             1993.62  2025.87  2110.22  2363.65  2441.02
                             4256.58  4497.48  4573.90

 Zero-point correction=                           0.078876 (Hartree/Particle)
 Thermal correction to Energy=                    0.087272
 Thermal correction to Enthalpy=                  0.088216
 Thermal correction to Gibbs Free Energy=         0.044127
 Sum of electronic and zero-point Energies=           -527.780900
 Sum of electronic and thermal Energies=              -527.772505
 Sum of electronic and thermal Enthalpies=            -527.771561
 Sum of electronic and thermal Free Energies=         -527.815650

                     E (Thermal)             CV                S
                      KCal/Mol        Cal/Mol-Kelvin    Cal/Mol-Kelvin
 Total                   54.764             29.350             92.793
 Electronic               0.000              0.000              0.000
 Translational            0.889              2.981             40.700
 Rotational               0.889              2.981             29.403
 Vibrational             52.986             23.389             22.690
 Vibration     1          0.593              1.984              6.005
 Vibration     2          0.606              1.941              3.263
 Vibration     3          0.618              1.904              2.688
 Vibration     4          0.636              1.845              2.169
 Vibration     5          0.658              1.776              1.787
 Vibration     6          0.663              1.760              1.721
 Vibration     7          0.732              1.562              1.139
 Vibration     8          0.773              1.452              0.933
 Vibration     9          0.950              1.048              0.463
 Vibration    10          0.971              1.007              0.430

 Optimization completed.
    -- Stationary point found.
 Normal termination of Gaussian 16 at Tue Jan 23 13:15:55 2024.
