 Gaussian 16, Revision C.02,
 Gaussian 16:  ES64L-G16RevC.02  7-Dec-2021

 ----------------------------------------------------------------------
 #p freq=raman scale=0.967 guess=read geom=allcheck b3lyp/6-311+G(d,p)
 int=grid=ultrafine EmpiricalDispersion=GD3BJ SCRF=(Solvent=ethanol) sc
 f=(xqc,intrep,maxconventionalcycle=350) nosymm
 ----------------------------------------------------------------------

 Structure from the checkpoint file:  "/scratch1/svicchi/G09-1868857.pbs02/02-freq/IMIDMeOH-isolated-freq.chk"
 -----------------
 IMIDMeOH-isolated
 -----------------
 Charge = -1 Multiplicity = 1

                          Input orientation:
 ---------------------------------------------------------------------
 Center     Atomic      Atomic             Coordinates (Angstroms)
 Number     Number       Type             X           Y           Z
 ---------------------------------------------------------------------
      1          6           0       -2.326801    3.417920    0.398842
      2          7           0       -1.337313    2.866074   -0.341361
      3          6           0       -1.873176    1.678212   -0.766063
      4          6           0       -3.163629    1.559814   -0.262060
      5          1           0       -1.314979    0.987197   -1.384932
      6          7           0       -3.452457    2.671768    0.485337
      7          1           0       -3.874090    0.752187   -0.384807
      8          6           0       -2.196997    4.753274    1.041453
      9          1           0       -2.808083    4.790303    1.949085
     10          1           0       -1.151246    4.935897    1.309398
     11          8           0       -2.640994    5.796120    0.128348
     12          1           0       -2.538216    6.642124    0.579401
 ---------------------------------------------------------------------

 SCF Done:  E(RB3LYP) =  -340.394264628     A.U. after    1 cycles

 Alpha  occ. eigenvalues --  -19.11579 -14.26019 -14.26015 -10.20363 -10.17038
 Alpha  occ. eigenvalues --  -10.14692 -10.14636  -1.00900  -0.94640  -0.79658
 Alpha  occ. eigenvalues --   -0.72675  -0.64275  -0.54366  -0.50625  -0.49855
 Alpha  occ. eigenvalues --   -0.45908  -0.43533  -0.38251  -0.37251  -0.37049
 Alpha  occ. eigenvalues --   -0.33091  -0.27481  -0.27030  -0.23374  -0.23029
 Alpha  occ. eigenvalues --   -0.19001
 Alpha virt. eigenvalues --    0.00780   0.02169   0.03711   0.04187   0.05698
 Alpha virt. eigenvalues --    0.05859   0.06553   0.06969   0.07674   0.08649
 Alpha virt. eigenvalues --    0.09548   0.09736   0.11583   0.12664   0.14346

 Mulliken charges:
               1
     1  C    0.290047
     2  N   -0.367508
     3  C   -0.147003
     4  C   -0.146086
     5  H    0.098645
     6  N   -0.366858
     7  H    0.098627
     8  C   -0.617447
     9  H    0.142289
    10  H    0.142110
    11  O   -0.394263
    12  H    0.267448
 Sum of Mulliken charges =  -1.00000

 Dipole moment (field-independent basis, Debye):
    X=             12.2869    Y=            -13.5473    Z=              1.6190  Tot=             18.3608
 Quadrupole moment (field-independent basis, Debye-Ang):
   XX=            -86.5243   YY=            -79.6877   ZZ=            -46.1149
   XY=             36.3081   XZ=             -0.6322   YZ=             12.2657

  Exact polarizability:     100.224       5.257     116.297      -9.170      16.098      84.589
 Approx polarizability:     112.037       6.393     121.683     -11.469      17.266      91.781

                      1                      2                      3
                      A                      A                      A
 Frequencies --     66.8002               154.8859               239.1709
 Red. masses --      3.8500                 5.3496                 1.0871
 Frc consts  --      0.0101                 0.0756                 0.0366
 IR Inten    --      0.9073                14.4075               201.9774
 Raman Activ --      4.5082                 7.5790                 2.9185

                      4                      5                      6
                      A                      A                      A
 Frequencies --    346.7433               422.9809               666.1142
 Red. masses --      2.5160                 7.2196                 3.5893
 Frc consts  --      0.1782                 0.7610                 0.9383
 IR Inten    --      3.2293                 7.0479                 0.0229
 Raman Activ --      0.0973                 6.5503                 0.2183

                      7                      8                      9
                      A                      A                      A
 Frequencies --    687.7141               757.3495               783.9620
 Red. masses --      4.4269                 1.2084                 7.6280
 Frc consts  --      1.2336                 0.4084                 2.7622
 IR Inten    --     26.3744               107.5457                66.3434
 Raman Activ --      5.5786                29.2969                 4.4163

                     10                     11                     12
                      A                      A                      A
 Frequencies --    821.6366               948.2044               949.3337
 Red. masses --      1.3805                 7.2593                 7.9213
 Frc consts  --      0.5491                 3.8455                 4.2061
 IR Inten    --      0.1331               151.0839                16.7595
 Raman Activ --     16.1389                79.3123                 2.3578

                     13                     14                     15
                      A                      A                      A
 Frequencies --    972.2877               991.1880              1108.9549
 Red. masses --      1.6988                 3.0426                 1.8363
 Frc consts  --      0.9462                 1.7612                 1.3305
 IR Inten    --     43.8309                23.8848                11.2044
 Raman Activ --      0.6227                 2.9454                55.1402

                     16                     17                     18
                      A                      A                      A
 Frequencies --   1155.5454              1202.9320              1217.1167
 Red. masses --      1.8136                 2.6399                 1.5437
 Frc consts  --      1.4268                 2.2507                 1.3473
 IR Inten    --     37.2725                44.9531                54.3407
 Raman Activ --      7.4094                52.6122                45.0166

                     19                     20                     21
                      A                      A                      A
 Frequencies --   1242.1549              1326.1833              1383.0942
 Red. masses --      1.3484                 2.4636                 1.8406
 Frc consts  --      1.2258                 2.5529                 2.0745
 IR Inten    --      2.8984                 5.5729                 7.0846
 Raman Activ --      4.0860                43.2469               147.1343

                     22                     23                     24
                      A                      A                      A
 Frequencies --   1445.6910              1446.2749              1473.6292
 Red. masses --      3.1181                 2.6672                 1.9255
 Frc consts  --      3.8397                 3.2871                 2.4636
 IR Inten    --     88.6688                14.1071                29.0309
 Raman Activ --      9.1170               323.0756                43.4309

                     25                     26                     27
                      A                      A                      A
 Frequencies --   1496.3253              3012.4951              3053.2980
 Red. masses --      1.5712                 1.0555                 1.1080
 Frc consts  --      2.0726                 5.6436                 6.0859
 IR Inten    --      1.7241               102.6212                66.6336
 Raman Activ --     26.0980               320.6705               177.3247

                     28                     29                     30
                      A                      A                      A
 Frequencies --   3176.1875              3198.3911              3805.5444
 Red. masses --      1.0871                 1.1026                 1.0665
 Frc consts  --      6.4617                 6.6458                 9.0998
 IR Inten    --     18.9379                69.5591                12.8910
 Raman Activ --    205.0680               280.1827               743.6359

 - Thermochemistry -
 -------------------
 Temperature   298.150 Kelvin.  Pressure   1.00000 Atm.
 Thermochemistry will use frequencies scaled by 0.9670.

 Molecular mass:    97.04019 amu.
 Principal axes and moments of inertia in atomic units:
                           1         2         3
     Eigenvalues --   248.17558 923.322061056.57646
           X            0.00919   0.92717   0.37453
           Y            0.96940   0.08363  -0.23082
           Z            0.24533  -0.36519   0.89803
 This molecule is an asymmetric top.
 Rotational symmetry number  1.
 Rotational temperatures (Kelvin)      0.34900     0.09381     0.08198
 Rotational constants (GHZ):           7.27203     1.95462     1.70810
 Zero-point vibrational energy     228767.7 (Joules/Mol)
                                   54.67678 (Kcal/Mol)
 Warning -- explicit consideration of   5 degrees of freedom as
           vibrations may cause significant error
 Vibrational temperatures:     92.94   215.49   332.76   482.42   588.49
          (Kelvin)            926.76   956.81  1053.70  1090.72  1143.14
                             1319.23  1320.81  1352.74  1379.04  1542.89
                             1607.71  1673.64  1693.37  1728.21  1845.12
                             1924.30  2011.39  2012.20  2050.26  2081.83
                             4191.28  4248.05  4419.02  4449.91  5294.64

 Zero-point correction=                           0.087133 (Hartree/Particle)
 Thermal correction to Energy=                    0.093488
 Thermal correction to Enthalpy=                  0.094432
 Thermal correction to Gibbs Free Energy=         0.056440
 Sum of electronic and zero-point Energies=           -340.307132
 Sum of electronic and thermal Energies=              -340.300777
 Sum of electronic and thermal Enthalpies=            -340.299833
 Sum of electronic and thermal Free Energies=         -340.337825

                     E (Thermal)             CV                S
                      KCal/Mol        Cal/Mol-Kelvin    Cal/Mol-Kelvin
 Total                   58.665             22.411             79.961
 Electronic               0.000              0.000              0.000
 Translational            0.889              2.981             39.628
 Rotational               0.889              2.981             26.984
 Vibrational             56.887             16.450             13.349
 Vibration     1          0.597              1.971              4.312
 Vibration     2          0.618              1.903              2.675
 Vibration     3          0.653              1.793              1.869
 Vibration     4          0.716              1.605              1.234
 Vibration     5          0.773              1.451              0.930

 Normal termination of Gaussian 16 at Thu Jan 11 14:12:14 2024.
