 Gaussian 16, Revision C.01,
 Gaussian 16:  ES64L-G16RevC.01  3-Jul-2019

 ----------------------------------------------------------------------
 #p freq=raman scale=0.967 pop=(nbo,full,hirshfeld) guess=read geom=all
 check b3lyp/6-311+G(d,p) int=grid=ultrafine EmpiricalDispersion=GD3BJ
 SCRF=(Solvent=ethanol) scf=(xqc,intrep,maxconventionalcycle=350) nosym
 m
 ----------------------------------------------------------------------

 Structure from the checkpoint file:  "/scratch1/svicchi/G09-659920.pbs02/02-freq/glycerol-CO2_binding_direct-site_index-0-freq.chk"
 --------------------------------------------
 glycerol-CO2_binding_direct-site_index-0.gjf
 --------------------------------------------
 Charge =  0 Multiplicity = 1

                          Input orientation:
 ---------------------------------------------------------------------
 Center     Atomic      Atomic             Coordinates (Angstroms)
 Number     Number       Type             X           Y           Z
 ---------------------------------------------------------------------
      1          8           0        2.598787   -0.010199    0.950304
      2          6           0        1.308553    0.565597    1.154606
      3          6           0        0.333946    0.134766    0.072502
      4          8           0        0.267267   -1.295538    0.131304
      5          6           0       -1.044886    0.744404    0.253925
      6          8           0       -1.863139    0.225145   -0.802372
      7          1           0        0.915516    0.281086    2.138145
      8          1           0        1.442578    1.647372    1.129655
      9          1           0        0.728092    0.437815   -0.906450
     10          1           0       -0.419741   -1.574849   -0.486706
     11          1           0       -1.452488    0.459558    1.229647
     12          1           0       -0.982008    1.836774    0.196397
     13          1           0       -2.788031    0.384862   -0.589479
     14          1           0        2.472542   -0.961588    0.845499
     15          6           0        3.928329    1.210353   -1.142164
     16          8           0        3.290774    2.167346   -0.981251
     17          8           0        4.588844    0.277182   -1.342474
 ---------------------------------------------------------------------

 SCF Done:  E(RB3LYP) =  -533.586956796     A.U. after    1 cycles

 Alpha  occ. eigenvalues --  -19.20226 -19.20218 -19.14032 -19.13566 -19.13483
 Alpha  occ. eigenvalues --  -10.36031 -10.23108 -10.22712 -10.22453  -1.16379
 Alpha  occ. eigenvalues --   -1.12510  -1.05416  -1.03654  -1.02069  -0.77935
 Alpha  occ. eigenvalues --   -0.68619  -0.61264  -0.56653  -0.55487  -0.52567
 Alpha  occ. eigenvalues --   -0.52392  -0.51751  -0.51517  -0.50324  -0.48152
 Alpha  occ. eigenvalues --   -0.44027  -0.43093  -0.42119  -0.37528  -0.37463
 Alpha  occ. eigenvalues --   -0.37130  -0.36737  -0.34814  -0.29984  -0.29601
 Alpha  occ. eigenvalues --   -0.29060
 Alpha virt. eigenvalues --   -0.00986   0.00241   0.01999   0.02216   0.02828
 Alpha virt. eigenvalues --    0.03203   0.03581   0.04778   0.05392   0.05986
 Alpha virt. eigenvalues --    0.06952   0.08128   0.08451   0.09467   0.10978

 Mulliken charges:
               1
     1  O   -0.351719
     2  C   -0.201359
     3  C   -0.010409
     4  O   -0.363415
     5  C   -0.337042
     6  O   -0.398362
     7  H    0.158902
     8  H    0.170835
     9  H    0.159260
    10  H    0.283300
    11  H    0.164808
    12  H    0.160858
    13  H    0.285718
    14  H    0.270215
    15  C    0.502187
    16  O   -0.240363
    17  O   -0.253412
 Sum of Mulliken charges =  -0.00000

 Dipole moment (field-independent basis, Debye):
    X=             -4.1827    Y=              1.2253    Z=              0.7702  Tot=              4.4260
 Quadrupole moment (field-independent basis, Debye-Ang):
   XX=            -57.2791   YY=            -53.8025   ZZ=            -54.2808
   XY=             -0.7281   XZ=             -2.2486   YZ=              1.5590

  Exact polarizability:      86.266      -8.895      86.708      -0.755       3.374      73.377
 Approx polarizability:      91.998     -15.441     103.526      -2.734       5.366      78.576

 Summary of Natural Population Analysis:

                                       Natural Population
                Natural  -----------------------------------------------
    Atom  No    Charge         Core      Valence    Rydberg      Total
 -----------------------------------------------------------------------
      O    1   -0.76252      1.99980     6.74654    0.01618     8.76252
      C    2   -0.04332      1.99915     4.02030    0.02388     6.04332
      C    3    0.07022      1.99916     3.90487    0.02575     5.92978
      O    4   -0.78084      1.99978     6.76659    0.01448     8.78084
      C    5   -0.05200      1.99915     4.03141    0.02144     6.05200
      O    6   -0.77230      1.99978     6.75964    0.01288     8.77230
      H    7    0.17116      0.00000     0.82632    0.00252     0.82884
      H    8    0.19408      0.00000     0.80417    0.00175     0.80592
      H    9    0.17864      0.00000     0.81830    0.00306     0.82136
      H   10    0.48725      0.00000     0.50821    0.00454     0.51275
      H   11    0.17595      0.00000     0.82121    0.00284     0.82405
      H   12    0.17741      0.00000     0.82015    0.00244     0.82259
      H   13    0.48373      0.00000     0.51209    0.00418     0.51627
      H   14    0.48152      0.00000     0.51429    0.00419     0.51848
      C   15    1.02391      1.99973     2.92528    0.05108     4.97609
      O   16   -0.51802      1.99971     6.50448    0.01383     8.51802
      O   17   -0.51486      1.99971     6.50186    0.01330     8.51486
 =======================================================================
   * Total *    0.00000     17.99597    53.78570    0.21833    72.00000

                      1                      2                      3
                      A                      A                      A
 Frequencies --     22.0476                25.3214                37.3491
 Red. masses --     12.7293                 6.7582                 4.8325
 Frc consts  --      0.0036                 0.0026                 0.0040
 IR Inten    --      0.3333                 0.2770                 4.4265
 Raman Activ --      3.4836                 0.2513                 0.3183

                      4                      5                      6
                      A                      A                      A
 Frequencies --     86.2009               110.1088               118.4138
 Red. masses --      5.9342                 7.6352                 3.2817
 Frc consts  --      0.0260                 0.0545                 0.0271
 IR Inten    --      2.6375                 3.4151                 5.5219
 Raman Activ --      0.7418                 1.5669                 1.3807

                      7                      8                      9
                      A                      A                      A
 Frequencies --    155.8196               186.3042               215.8334
 Red. masses --      4.2997                 3.7638                 1.1238
 Frc consts  --      0.0615                 0.0770                 0.0308
 IR Inten    --     12.8481                10.8769               188.9629
 Raman Activ --      1.2027                 0.1559                 1.3507

                     10                     11                     12
                      A                      A                      A
 Frequencies --    269.1282               360.9167               392.6691
 Red. masses --      1.6226                 1.5393                 1.6191
 Frc consts  --      0.0692                 0.1181                 0.1471
 IR Inten    --     75.4248               147.4856               106.2135
 Raman Activ --      0.6512                 1.1381                 2.5854

                     13                     14                     15
                      A                      A                      A
 Frequencies --    420.8180               479.3098               560.4194
 Red. masses --      2.5132                 2.3443                 2.9374
 Frc consts  --      0.2622                 0.3173                 0.5435
 IR Inten    --     44.7605                14.9226                53.0695
 Raman Activ --      3.8306                 1.3824                 0.7728

                     16                     17                     18
                      A                      A                      A
 Frequencies --    635.9389               664.3146               858.0557
 Red. masses --     12.8814                12.8297                 2.9120
 Frc consts  --      3.0693                 3.3359                 1.2632
 IR Inten    --     88.6675                46.7753                58.4279
 Raman Activ --      4.4841                 0.0589                 7.9331

                     19                     20                     21
                      A                      A                      A
 Frequencies --    925.4599               995.5243              1055.6258
 Red. masses --      1.4691                 5.1528                 3.0721
 Frc consts  --      0.7413                 3.0088                 2.0170
 IR Inten    --      5.5108               127.4881               119.6227
 Raman Activ --      3.0780                 0.6286                 9.9540

                     22                     23                     24
                      A                      A                      A
 Frequencies --   1064.8869              1079.0154              1111.0259
 Red. masses --      3.2681                 2.4185                 2.1942
 Frc consts  --      2.1835                 1.6590                 1.5958
 IR Inten    --     54.2103                93.2669                53.5204
 Raman Activ --     14.9430                 2.2826                 5.7058

                     25                     26                     27
                      A                      A                      A
 Frequencies --   1194.3305              1225.7126              1270.3041
 Red. masses --      1.1517                 1.2443                 1.0768
 Frc consts  --      0.9679                 1.1014                 1.0238
 IR Inten    --     10.9097                40.6629                 5.4308
 Raman Activ --      3.6006                 6.5089                18.7579

                     28                     29                     30
                      A                      A                      A
 Frequencies --   1281.0085              1347.7068              1370.9016
 Red. masses --      1.2044                 1.2888                 2.2677
 Frc consts  --      1.1645                 1.3792                 2.5111
 IR Inten    --     74.9722                39.1711                13.7531
 Raman Activ --      6.9995                 1.1122                29.6184

                     31                     32                     33
                      A                      A                      A
 Frequencies --   1372.4731              1406.6207              1438.4491
 Red. masses --      2.3239                 1.2033                 1.3651
 Frc consts  --      2.5791                 1.4027                 1.6642
 IR Inten    --     15.3747                16.2308                14.5078
 Raman Activ --     20.3813                10.1222                 4.3702

                     34                     35                     36
                      A                      A                      A
 Frequencies --   1454.6144              1490.8272              1502.2640
 Red. masses --      1.6401                 1.0883                 1.0837
 Frc consts  --      2.0447                 1.4252                 1.4410
 IR Inten    --      9.0326                 5.3325                 7.8020
 Raman Activ --      1.1339                 6.6253                16.1502

                     37                     38                     39
                      A                      A                      A
 Frequencies --   2384.3751              3001.9854              3010.8888
 Red. masses --     12.8640                 1.0804                 1.0575
 Frc consts  --     43.0898                 5.7368                 5.6481
 IR Inten    --   1079.1854                13.3614                29.3507
 Raman Activ --      0.3413               452.0726               128.6390

                     40                     41                     42
                      A                      A                      A
 Frequencies --   3017.3012              3058.6417              3108.9280
 Red. masses --      1.0698                 1.1081                 1.0958
 Frc consts  --      5.7382                 6.1077                 6.2400
 IR Inten    --    128.5969                69.7084                34.1478
 Raman Activ --    173.9769                98.0456               141.7444

                     43                     44                     45
                      A                      A                      A
 Frequencies --   3795.6265              3796.9647              3842.5072
 Red. masses --      1.0661                 1.0660                 1.0671
 Frc consts  --      9.0490                 9.0551                 9.2827
 IR Inten    --     72.6065               109.3120                84.0856
 Raman Activ --     75.0970               144.6815               166.9612

 - Thermochemistry -
 -------------------
 Temperature   298.150 Kelvin.  Pressure   1.00000 Atm.
 Thermochemistry will use frequencies scaled by 0.9670.

 Molecular mass:   136.03717 amu.
 Principal axes and moments of inertia in atomic units:
                           1         2         3
     Eigenvalues --   694.456672633.206832802.89119
           X            0.97053  -0.24094   0.00521
           Y            0.18148   0.74489   0.64204
           Z           -0.15857  -0.62217   0.76666
 This molecule is an asymmetric top.
 Rotational symmetry number  1.
 Warning -- assumption of classical behavior for rotation
           may cause significant error
 Rotational temperatures (Kelvin)      0.12472     0.03289     0.03090
 Rotational constants (GHZ):           2.59878     0.68538     0.64389
 Zero-point vibrational energy     330858.6 (Joules/Mol)
                                   79.07711 (Kcal/Mol)
 Warning -- explicit consideration of  16 degrees of freedom as
           vibrations may cause significant error
 Vibrational temperatures:     30.67    35.23    51.96   119.93   153.19
          (Kelvin)            164.75   216.79   259.20   300.29   374.44
                              502.14   546.32   585.48   666.86   779.71
                              884.78   924.26  1193.81  1287.59  1385.07
                             1468.69  1481.57  1501.23  1545.77  1661.67
                             1705.33  1767.37  1782.26  1875.06  1907.33
                             1909.52  1957.03  2001.31  2023.80  2074.18
                             2090.10  3317.37  4176.65  4189.04  4197.96
                             4255.48  4325.44  5280.84  5282.71  5346.07

 Zero-point correction=                           0.126017 (Hartree/Particle)
 Thermal correction to Energy=                    0.138111
 Thermal correction to Enthalpy=                  0.139055
 Thermal correction to Gibbs Free Energy=         0.084773
 Sum of electronic and zero-point Energies=           -533.460939
 Sum of electronic and thermal Energies=              -533.448846
 Sum of electronic and thermal Enthalpies=            -533.447902
 Sum of electronic and thermal Free Energies=         -533.502184

                     E (Thermal)             CV                S
                      KCal/Mol        Cal/Mol-Kelvin    Cal/Mol-Kelvin
 Total                   86.666             38.696            114.247
 Electronic               0.000              0.000              0.000
 Translational            0.889              2.981             40.635
 Rotational               0.889              2.981             30.017
 Vibrational             84.888             32.735             43.594
 Vibration     1          0.593              1.985              6.507
 Vibration     2          0.593              1.985              6.232
 Vibration     3          0.594              1.982              5.461
 Vibration     4          0.600              1.961              3.810
 Vibration     5          0.605              1.944              3.332
 Vibration     6          0.607              1.937              3.191
 Vibration     7          0.618              1.902              2.664
 Vibration     8          0.629              1.867              2.327
 Vibration     9          0.642              1.827              2.055
 Vibration    10          0.668              1.745              1.660
 Vibration    11          0.726              1.577              1.171
 Vibration    12          0.750              1.513              1.040
 Vibration    13          0.772              1.455              0.938
 Vibration    14          0.821              1.331              0.756
 Vibration    15          0.897              1.157              0.561
 Vibration    16          0.974              1.000              0.425

 Optimization completed.
    -- Stationary point found.
 Normal termination of Gaussian 16 at Fri Jun  2 14:24:21 2023.
