 Gaussian 16, Revision C.01,
 Gaussian 16:  ES64L-G16RevC.01  3-Jul-2019

 ----------------------------------------------------------------------
 #p freq=raman scale=0.967 pop=(nbo,full,hirshfeld) guess=read geom=all
 check b3lyp/6-311+G(d,p) int=grid=ultrafine EmpiricalDispersion=GD3BJ
 SCRF=(Solvent=ethanol) scf=(xqc,intrep,maxconventionalcycle=350) nosym
 m
 ----------------------------------------------------------------------

 Structure from the checkpoint file:  "/scratch1/svicchi/G09-659825.pbs02/02-freq/pyrrolide-H_dissociation-site_index-4-freq.chk"
 -----------------------------------------
 pyrrolide-H_dissociation-site_index-4.gjf
 -----------------------------------------
 Charge =  0 Multiplicity = 1

                          Input orientation:
 ---------------------------------------------------------------------
 Center     Atomic      Atomic             Coordinates (Angstroms)
 Number     Number       Type             X           Y           Z
 ---------------------------------------------------------------------
      1          6           0       -2.863352   -1.707056    0.000000
      2          6           0       -1.436332   -1.705046   -0.000000
      3          6           0       -3.276713   -0.390624   -0.000000
      4          6           0       -1.026681   -0.387456   -0.000000
      5          7           0       -2.152804    0.398858   -0.000000
      6          1           0       -4.262829    0.043963    0.000000
      7          1           0       -3.509886   -2.571024   -0.000000
      8          1           0       -0.787362   -2.567187    0.000000
      9          1           0       -0.041793    0.049905    0.000000
     10          1           0       -2.154213    1.406537    0.000000
 ---------------------------------------------------------------------

 SCF Done:  E(RB3LYP) =  -210.249813692     A.U. after    1 cycles

 Alpha  occ. eigenvalues --  -14.36107 -10.19470 -10.19468 -10.16072 -10.16029
 Alpha  occ. eigenvalues --   -0.98127  -0.77799  -0.72662  -0.59340  -0.57176
 Alpha  occ. eigenvalues --   -0.54900  -0.43618  -0.42830  -0.41405  -0.39749
 Alpha  occ. eigenvalues --   -0.38289  -0.25523  -0.22439
 Alpha virt. eigenvalues --    0.00569   0.01630   0.03125   0.03138   0.05183
 Alpha virt. eigenvalues --    0.05261   0.05417   0.05445   0.06442   0.09002
 Alpha virt. eigenvalues --    0.09963   0.10624   0.11323   0.14110   0.14914

 Mulliken charges:
               1
     1  C   -0.154905
     2  C   -0.154904
     3  C   -0.197978
     4  C   -0.197977
     5  N   -0.163409
     6  H    0.144242
     7  H    0.135010
     8  H    0.135010
     9  H    0.144240
    10  H    0.310670
 Sum of Mulliken charges =  -0.00000

 Dipole moment (field-independent basis, Debye):
    X=             -0.0034    Y=              2.4705    Z=              0.0000  Tot=              2.4705
 Quadrupole moment (field-independent basis, Debye-Ang):
   XX=            -26.8586   YY=            -26.9742   ZZ=            -34.8265
   XY=             -5.3168   XZ=             -0.0000   YZ=             -0.0000

  Exact polarizability:      78.451       0.003      76.241       0.000       0.000      48.465
 Approx polarizability:      91.033      -0.003      92.936       0.000       0.000      52.163

 Summary of Natural Population Analysis:

                                       Natural Population
                Natural  -----------------------------------------------
    Atom  No    Charge         Core      Valence    Rydberg      Total
 -----------------------------------------------------------------------
      C    1   -0.31854      1.99919     4.30061    0.01875     6.31854
      C    2   -0.31855      1.99919     4.30061    0.01875     6.31855
      C    3   -0.06242      1.99923     4.03828    0.02491     6.06242
      C    4   -0.06242      1.99923     4.03828    0.02491     6.06242
      N    5   -0.53095      1.99939     5.51625    0.01531     7.53095
      H    6    0.21568      0.00000     0.78297    0.00135     0.78432
      H    7    0.21927      0.00000     0.77936    0.00136     0.78073
      H    8    0.21927      0.00000     0.77936    0.00136     0.78073
      H    9    0.21568      0.00000     0.78297    0.00135     0.78432
      H   10    0.42297      0.00000     0.57509    0.00193     0.57703
 =======================================================================
   * Total *    0.00000      9.99621    25.89380    0.10999    36.00000

                      1                      2                      3
                      A                      A                      A
 Frequencies --    518.5539               629.5112               643.4826
 Red. masses --      1.4989                 3.0754                 2.0843
 Frc consts  --      0.2375                 0.7180                 0.5085
 IR Inten    --    136.5303                 0.0000                 0.1706
 Raman Activ --      1.0126                 0.0008                 1.8358

                      4                      5                      6
                      A                      A                      A
 Frequencies --    700.2470               723.1748               843.0555
 Red. masses --      1.2994                 1.1949                 1.2538
 Frc consts  --      0.3754                 0.3682                 0.5250
 IR Inten    --      0.0000               261.7298                 0.7108
 Raman Activ --     21.4335                 0.8533                10.1504

                      7                      8                      9
                      A                      A                      A
 Frequencies --    881.3026               887.8599               903.6235
 Red. masses --      1.3087                 5.3183                 3.8876
 Frc consts  --      0.5989                 2.4701                 1.8703
 IR Inten    --      0.0000                 2.5448                 0.8879
 Raman Activ --      0.4177                 6.9536                 3.5876

                     10                     11                     12
                      A                      A                      A
 Frequencies --   1025.9237              1062.4070              1086.5094
 Red. masses --      1.4218                 1.3691                 1.5185
 Frc consts  --      0.8817                 0.9105                 1.0562
 IR Inten    --     62.2905                52.9708                18.7578
 Raman Activ --      1.1852                 7.5574                 0.8524

                     13                     14                     15
                      A                      A                      A
 Frequencies --   1153.8301              1174.5379              1307.7674
 Red. masses --      1.2837                 4.0904                 1.3989
 Frc consts  --      1.0069                 3.3247                 1.4096
 IR Inten    --      6.3621                 3.3110                 1.8744
 Raman Activ --      3.0898               117.1836                 1.3260

                     16                     17                     18
                      A                      A                      A
 Frequencies --   1408.6832              1445.7045              1491.9840
 Red. masses --      4.2170                 3.0391                 2.6757
 Frc consts  --      4.9304                 3.7425                 3.5092
 IR Inten    --      5.0498                13.1528                21.1378
 Raman Activ --    132.1142                13.5582                57.0640

                     19                     20                     21
                      A                      A                      A
 Frequencies --   1565.7783              3226.7112              3238.6602
 Red. masses --      2.7817                 1.0896                 1.0950
 Frc consts  --      4.0181                 6.6838                 6.7668
 IR Inten    --      3.3027                 6.6293                 4.8400
 Raman Activ --      1.0772               178.0978                90.7332

                     22                     23                     24
                      A                      A                      A
 Frequencies --   3259.3484              3264.1501              3659.2786
 Red. masses --      1.0990                 1.1056                 1.0816
 Frc consts  --      6.8786                 6.9404                 8.5332
 IR Inten    --      1.7270                 0.0867               137.1132
 Raman Activ --     26.0845               413.5894               196.4575

 - Thermochemistry -
 -------------------
 Temperature   298.150 Kelvin.  Pressure   1.00000 Atm.
 Thermochemistry will use frequencies scaled by 0.9670.

 Molecular mass:    67.04220 amu.
 Principal axes and moments of inertia in atomic units:
                           1         2         3
     Eigenvalues --   197.50713 200.43882 397.94594
           X           -0.00135   1.00000   0.00000
           Y            1.00000   0.00135   0.00000
           Z           -0.00000  -0.00000   1.00000
 This molecule is an asymmetric top.
 Rotational symmetry number  1.
 Rotational temperatures (Kelvin)      0.43854     0.43212     0.21765
 Rotational constants (GHZ):           9.13760     9.00395     4.53514
 Zero-point vibrational energy     208812.5 (Joules/Mol)
                                   49.90737 (Kcal/Mol)
 Warning -- explicit consideration of   2 degrees of freedom as
           vibrations may cause significant error
 Vibrational temperatures:    721.46   875.84   895.28   974.25  1006.15
          (Kelvin)           1172.94  1226.15  1235.28  1257.21  1427.36
                             1478.12  1511.66  1605.32  1634.13  1819.49
                             1959.90  2011.40  2075.79  2178.46  4489.31
                             4505.94  4534.72  4541.40  5091.14

 Zero-point correction=                           0.079532 (Hartree/Particle)
 Thermal correction to Energy=                    0.083574
 Thermal correction to Enthalpy=                  0.084519
 Thermal correction to Gibbs Free Energy=         0.053118
 Sum of electronic and zero-point Energies=           -210.170281
 Sum of electronic and thermal Energies=              -210.166239
 Sum of electronic and thermal Enthalpies=            -210.165295
 Sum of electronic and thermal Free Energies=         -210.196696

                     E (Thermal)             CV                S
                      KCal/Mol        Cal/Mol-Kelvin    Cal/Mol-Kelvin
 Total                   52.444             15.334             66.089
 Electronic               0.000              0.000              0.000
 Translational            0.889              2.981             38.526
 Rotational               0.889              2.981             24.269
 Vibrational             50.666              9.373              3.293
 Vibration     1          0.857              1.247              0.655
 Vibration     2          0.968              1.013              0.435

 Optimization completed.
    -- Stationary point found.
 Normal termination of Gaussian 16 at Fri Jun  2 10:56:09 2023.
