 Gaussian 16, Revision C.01,
 Gaussian 16:  ES64L-G16RevC.01  3-Jul-2019

 ----------------------------------------------------------------------
 #p freq=raman scale=0.967 pop=(nbo,full,hirshfeld) guess=read geom=all
 check b3lyp/6-311+G(d,p) int=grid=ultrafine EmpiricalDispersion=GD3BJ
 SCRF=(Solvent=ethanol) scf=(xqc,intrep,maxconventionalcycle=350) nosym
 m
 ----------------------------------------------------------------------

 Structure from the checkpoint file:  "/scratch1/svicchi/G09-659730.pbs02/02-freq/3ethylthiazolium-CO2_binding-site_index-1-freq.chk"
 ---------------------------------------------
 3ethylthiazolium-CO2_binding-site_index-1.gjf
 ---------------------------------------------
 Charge =  0 Multiplicity = 1

                          Input orientation:
 ---------------------------------------------------------------------
 Center     Atomic      Atomic             Coordinates (Angstroms)
 Number     Number       Type             X           Y           Z
 ---------------------------------------------------------------------
      1          7           0       -0.066866    0.224204   -0.003114
      2          6           0        1.056118   -0.491540    0.058377
      3          6           0       -0.412556    0.629051   -1.282157
      4          6           0        0.474060    0.220099   -2.218810
      5         16           0        1.750712   -0.688814   -1.491268
      6          6           0       -0.950304    0.538341    1.153243
      7          6           0       -1.983324   -0.560717    1.362482
      8          1           0       -2.631006   -0.283910    2.196673
      9          1           0       -2.605087   -0.698861    0.475506
     10          1           0       -1.492308   -1.503865    1.605585
     11          1           0       -1.417484    1.493759    0.919416
     12          1           0       -0.308163    0.643521    2.020623
     13          1           0       -1.309137    1.210310   -1.428569
     14          1           0        0.443770    0.405725   -3.279812
     15          6           0        1.757855   -1.114596    1.285278
     16          8           0        1.241519   -0.897927    2.394576
     17          8           0        2.775485   -1.761739    0.968121
 ---------------------------------------------------------------------

 SCF Done:  E(RB3LYP) =  -836.433898013     A.U. after    1 cycles

 Alpha  occ. eigenvalues --  -88.92903 -19.08920 -19.08788 -14.43626 -10.29417
 Alpha  occ. eigenvalues --  -10.28825 -10.25434 -10.24181 -10.23218 -10.17682
 Alpha  occ. eigenvalues --   -8.01458  -5.97721  -5.97318  -5.97126  -1.06668
 Alpha  occ. eigenvalues --   -1.04574  -0.97492  -0.87839  -0.80554  -0.78236
 Alpha  occ. eigenvalues --   -0.67732  -0.65536  -0.63555  -0.56597  -0.52411
 Alpha  occ. eigenvalues --   -0.50127  -0.48437  -0.47441  -0.46480  -0.44848
 Alpha  occ. eigenvalues --   -0.42703  -0.42533  -0.40884  -0.40036  -0.39017
 Alpha  occ. eigenvalues --   -0.37321  -0.32885  -0.29561  -0.27857  -0.27705
 Alpha  occ. eigenvalues --   -0.26578
 Alpha virt. eigenvalues --   -0.09222  -0.02525  -0.00934   0.00111   0.02056
 Alpha virt. eigenvalues --    0.02304   0.02741   0.03587   0.04094   0.05085
 Alpha virt. eigenvalues --    0.05249   0.06406   0.06901   0.07160   0.07371

 Mulliken charges:
               1
     1  N    0.381301
     2  C   -0.088918
     3  C   -0.086711
     4  C   -0.178786
     5  S    0.123626
     6  C   -0.222047
     7  C   -0.393985
     8  H    0.167392
     9  H    0.153298
    10  H    0.163239
    11  H    0.178803
    12  H    0.207964
    13  H    0.191032
    14  H    0.221412
    15  C    0.163786
    16  O   -0.480462
    17  O   -0.500945
 Sum of Mulliken charges =  -0.00000

 Dipole moment (field-independent basis, Debye):
    X=             -8.6100    Y=              6.3568    Z=             -8.9973  Tot=             13.9819
 Quadrupole moment (field-independent basis, Debye-Ang):
   XX=            -80.3580   YY=            -72.6356   ZZ=            -68.7461
   XY=             11.0324   XZ=            -15.9558   YZ=              7.9007

  Exact polarizability:     137.273     -28.832     101.371     -10.189      -7.510     154.113
 Approx polarizability:     162.670     -39.345     120.438     -16.463      -3.573     184.497

 Summary of Natural Population Analysis:

                                       Natural Population
                Natural  -----------------------------------------------
    Atom  No    Charge         Core      Valence    Rydberg      Total
 -----------------------------------------------------------------------
      N    1   -0.35163      1.99916     5.32990    0.02258     7.35163
      C    2    0.03444      1.99915     3.93374    0.03267     5.96556
      C    3    0.00344      1.99908     3.97752    0.01995     5.99656
      C    4   -0.38092      1.99912     4.36230    0.01950     6.38092
      S    5    0.58880      9.99882     5.36940    0.04298    15.41120
      C    6   -0.17487      1.99926     4.15895    0.01666     6.17487
      C    7   -0.58735      1.99935     4.57969    0.00831     6.58735
      H    8    0.22198      0.00000     0.77691    0.00110     0.77802
      H    9    0.20799      0.00000     0.79061    0.00140     0.79201
      H   10    0.21513      0.00000     0.78306    0.00181     0.78487
      H   11    0.21484      0.00000     0.78355    0.00160     0.78516
      H   12    0.24969      0.00000     0.74822    0.00209     0.75031
      H   13    0.24975      0.00000     0.74880    0.00146     0.75025
      H   14    0.26802      0.00000     0.73070    0.00128     0.73198
      C   15    0.73188      1.99939     3.20906    0.05967     5.26812
      O   16   -0.73956      1.99976     6.72554    0.01426     8.73956
      O   17   -0.75163      1.99977     6.73822    0.01363     8.75163
 =======================================================================
   * Total *    0.00000     27.99287    53.74618    0.26095    82.00000

                      1                      2                      3
                      A                      A                      A
 Frequencies --     24.7423                48.5933               114.3269
 Red. masses --      7.6631                 3.0362                 5.1566
 Frc consts  --      0.0028                 0.0042                 0.0397
 IR Inten    --      0.3595                 4.2006                 1.8475
 Raman Activ --      2.7295                 0.9969                 2.5650

                      4                      5                      6
                      A                      A                      A
 Frequencies --    171.6062               200.2860               211.2992
 Red. masses --      4.7067                 3.6504                 1.3116
 Frc consts  --      0.0817                 0.0863                 0.0345
 IR Inten    --      2.2802                 6.4425                 1.2675
 Raman Activ --      2.7811                 0.3774                 0.3922

                      7                      8                      9
                      A                      A                      A
 Frequencies --    337.5289               352.5094               386.0963
 Red. masses --      4.1312                 4.2381                 4.4460
 Frc consts  --      0.2773                 0.3103                 0.3905
 IR Inten    --     18.7279                 2.3536                 1.3734
 Raman Activ --      1.7175                 2.4749                 3.2001

                     10                     11                     12
                      A                      A                      A
 Frequencies --    471.6192               480.9683               569.2180
 Red. masses --      4.9744                 6.8065                 4.5168
 Frc consts  --      0.6519                 0.9277                 0.8623
 IR Inten    --      0.0384                 0.3984                 9.4490
 Raman Activ --      1.0163                 4.6947                19.0139

                     13                     14                     15
                      A                      A                      A
 Frequencies --    641.5914               694.9755               739.5408
 Red. masses --      3.3983                 7.3184                 1.4566
 Frc consts  --      0.8242                 2.0826                 0.4694
 IR Inten    --     40.5032                 1.8477                38.6849
 Raman Activ --      1.0245                13.9427                 2.0057

                     16                     17                     18
                      A                      A                      A
 Frequencies --    774.7650               787.4971               796.2987
 Red. masses --     12.0286                 6.8991                 1.2142
 Frc consts  --      4.2541                 2.5208                 0.4536
 IR Inten    --    211.0336                38.3231                10.4935
 Raman Activ --     13.4291                 2.1433                 0.4570

                     19                     20                     21
                      A                      A                      A
 Frequencies --    843.5645               888.3731               945.5011
 Red. masses --      4.0856                 1.3119                 2.5624
 Frc consts  --      1.7129                 0.6100                 1.3496
 IR Inten    --      7.0432                 0.4034                18.5831
 Raman Activ --      2.9813                 1.8518                 9.5893

                     22                     23                     24
                      A                      A                      A
 Frequencies --   1015.7301              1086.6526              1109.2155
 Red. masses --      2.5977                 2.6914                 2.0665
 Frc consts  --      1.5791                 1.8725                 1.4981
 IR Inten    --      0.4821                 4.2575                 7.9641
 Raman Activ --     12.1996                51.4312                 4.6971

                     25                     26                     27
                      A                      A                      A
 Frequencies --   1128.4457              1169.9502              1237.3389
 Red. masses --      1.3916                 2.5201                 2.0222
 Frc consts  --      1.0441                 2.0324                 1.8241
 IR Inten    --      0.9209                28.9587                78.7875
 Raman Activ --     12.0560                15.6196                 5.2267

                     28                     29                     30
                      A                      A                      A
 Frequencies --   1300.0848              1312.6313              1367.7947
 Red. masses --      1.3886                12.1231                 1.7403
 Frc consts  --      1.3829                12.3070                 1.9182
 IR Inten    --     51.8412               486.9368                37.4024
 Raman Activ --     47.1551               164.7892                11.9250

                     31                     32                     33
                      A                      A                      A
 Frequencies --   1403.7537              1413.2780              1448.2947
 Red. masses --      1.3391                 1.4092                 2.6065
 Frc consts  --      1.5547                 1.6583                 3.2213
 IR Inten    --      4.7917                 3.3965                20.1112
 Raman Activ --      6.6822                 6.0307               182.2996

                     34                     35                     36
                      A                      A                      A
 Frequencies --   1476.4718              1482.3341              1494.5595
 Red. masses --      1.2350                 1.0584                 1.1071
 Frc consts  --      1.5862                 1.3702                 1.4570
 IR Inten    --     15.1014                29.4146                22.9979
 Raman Activ --     84.4204                18.8629                10.6945

                     37                     38                     39
                      A                      A                      A
 Frequencies --   1583.9773              1684.9532              3042.0294
 Red. masses --      4.6082                11.7445                 1.0348
 Frc consts  --      6.8121                19.6453                 5.6422
 IR Inten    --     40.8063               921.8381                21.2844
 Raman Activ --     29.6388                60.4753               317.2089

                     40                     41                     42
                      A                      A                      A
 Frequencies --   3097.9996              3109.9495              3123.5269
 Red. masses --      1.0689                 1.1029                 1.0991
 Frc consts  --      6.0444                 6.2848                 6.3180
 IR Inten    --     16.3608                25.2299                34.6843
 Raman Activ --    237.6428               172.1861               122.9984

                     43                     44                     45
                      A                      A                      A
 Frequencies --   3181.0261              3248.0707              3272.8246
 Red. masses --      1.1024                 1.0933                 1.1026
 Frc consts  --      6.5726                 6.7960                 6.9587
 IR Inten    --      1.5810                 7.8826                11.9152
 Raman Activ --     67.4301               166.9369               312.4320

 - Thermochemistry -
 -------------------
 Temperature   298.150 Kelvin.  Pressure   1.00000 Atm.
 Thermochemistry will use frequencies scaled by 0.9670.

 Molecular mass:   157.01975 amu.
 Principal axes and moments of inertia in atomic units:
                           1         2         3
     Eigenvalues --  1303.495611379.136072514.99487
           X           -0.61508   0.69018   0.38122
           Y            0.06862  -0.43480   0.89791
           Z            0.78547   0.57845   0.22007
 This molecule is an asymmetric top.
 Rotational symmetry number  1.
 Warning -- assumption of classical behavior for rotation
           may cause significant error
 Rotational temperatures (Kelvin)      0.06645     0.06280     0.03444
 Rotational constants (GHZ):           1.38454     1.30860     0.71759
 Zero-point vibrational energy     319689.0 (Joules/Mol)
                                   76.40750 (Kcal/Mol)
 Warning -- explicit consideration of  13 degrees of freedom as
           vibrations may cause significant error
 Vibrational temperatures:     34.42    67.61   159.06   238.76   278.66
          (Kelvin)            293.98   469.60   490.45   537.17   656.16
                              669.17   791.95   892.64   966.92  1028.92
                             1077.93  1095.64  1107.89  1173.65  1235.99
                             1315.47  1413.18  1511.86  1543.25  1570.00
                             1627.75  1721.51  1808.80  1826.26  1903.01
                             1953.04  1966.29  2015.01  2054.21  2062.37
                             2079.38  2203.78  2344.27  4232.37  4310.24
                             4326.86  4345.75  4425.75  4519.03  4553.47

 Zero-point correction=                           0.121763 (Hartree/Particle)
 Thermal correction to Energy=                    0.131668
 Thermal correction to Enthalpy=                  0.132613
 Thermal correction to Gibbs Free Energy=         0.084763
 Sum of electronic and zero-point Energies=           -836.312135
 Sum of electronic and thermal Energies=              -836.302230
 Sum of electronic and thermal Enthalpies=            -836.301285
 Sum of electronic and thermal Free Energies=         -836.349135

                     E (Thermal)             CV                S
                      KCal/Mol        Cal/Mol-Kelvin    Cal/Mol-Kelvin
 Total                   82.623             35.473            100.708
 Electronic               0.000              0.000              0.000
 Translational            0.889              2.981             41.063
 Rotational               0.889              2.981             29.893
 Vibrational             80.846             29.511             29.753
 Vibration     1          0.593              1.985              6.278
 Vibration     2          0.595              1.979              4.940
 Vibration     3          0.606              1.941              3.259
 Vibration     4          0.624              1.884              2.481
 Vibration     5          0.635              1.849              2.192
 Vibration     6          0.640              1.834              2.094
 Vibration     7          0.710              1.623              1.278
 Vibration     8          0.720              1.594              1.208
 Vibration     9          0.745              1.527              1.066
 Vibration    10          0.814              1.348              0.778
 Vibration    11          0.823              1.327              0.751
 Vibration    12          0.906              1.139              0.543
 Vibration    13          0.980              0.989              0.416

 Optimization completed.
    -- Stationary point found.
 Normal termination of Gaussian 16 at Fri Jun  2 14:24:36 2023.
