 Gaussian 16, Revision C.01,
 Gaussian 16:  ES64L-G16RevC.01  3-Jul-2019

 ----------------------------------------------------------------------
 #p freq=raman scale=0.967 pop=(nbo,full,hirshfeld) guess=read geom=all
 check b3lyp/6-311+G(d,p) int=grid=ultrafine EmpiricalDispersion=GD3BJ
 SCRF=(Solvent=ethanol) scf=(xqc,intrep,maxconventionalcycle=350) nosym
 m
 ----------------------------------------------------------------------

 Structure from the checkpoint file:  "/scratch1/svicchi/G09-659738.pbs02/02-freq/choline-isolated-freq.chk"
 --------------------
 choline-isolated.gjf
 --------------------
 Charge =  1 Multiplicity = 1

                          Input orientation:
 ---------------------------------------------------------------------
 Center     Atomic      Atomic             Coordinates (Angstroms)
 Number     Number       Type             X           Y           Z
 ---------------------------------------------------------------------
      1          7           0       -4.904436    1.792123    0.046833
      2          6           0       -6.146933    1.743570   -0.799838
      3          1           0       -6.282881    2.713522   -1.272798
      4          1           0       -6.994271    1.517876   -0.156703
      5          1           0       -6.028139    0.969199   -1.553965
      6          6           0       -5.121404    2.790252    1.155373
      7          1           0       -5.964226    2.451772    1.753634
      8          1           0       -5.344566    3.755552    0.706698
      9          1           0       -4.215973    2.851237    1.748811
     10          6           0       -4.663333    0.433654    0.638739
     11          1           0       -3.836742    0.493773    1.340739
     12          1           0       -4.436809   -0.265585   -0.163018
     13          1           0       -5.567169    0.124918    1.158416
     14          6           0       -3.750119    2.220395   -0.853126
     15          6           0       -2.352745    2.003379   -0.311169
     16          1           0       -3.919998    3.272732   -1.077672
     17          1           0       -3.851914    1.645944   -1.773293
     18          8           0       -2.151293    2.790978    0.858477
     19          1           0       -1.674067    2.308450   -1.115320
     20          1           0       -2.167300    0.944733   -0.109158
     21          1           0       -1.251182    2.652897    1.173318
 ---------------------------------------------------------------------

 SCF Done:  E(RB3LYP) =  -328.896476019     A.U. after    1 cycles

 Alpha  occ. eigenvalues --  -19.15205 -14.46647 -10.25088 -10.25063 -10.23994
 Alpha  occ. eigenvalues --  -10.23967 -10.23316  -1.05780  -1.03777  -0.80556
 Alpha  occ. eigenvalues --   -0.77280  -0.76802  -0.69597  -0.63202  -0.56569
 Alpha  occ. eigenvalues --   -0.55353  -0.53838  -0.53183  -0.48043  -0.46610
 Alpha  occ. eigenvalues --   -0.45303  -0.44127  -0.42651  -0.42404  -0.42230
 Alpha  occ. eigenvalues --   -0.41900  -0.41756  -0.36816  -0.31059
 Alpha virt. eigenvalues --   -0.01067   0.00546   0.01494   0.01676   0.02424
 Alpha virt. eigenvalues --    0.02999   0.03622   0.04034   0.04756   0.05490
 Alpha virt. eigenvalues --    0.06781   0.07530   0.08566   0.08890   0.09604

 Mulliken charges:
               1
     1  N   -0.256238
     2  C   -0.304024
     3  H    0.211012
     4  H    0.207396
     5  H    0.212150
     6  C   -0.321225
     7  H    0.202181
     8  H    0.209325
     9  H    0.228426
    10  C   -0.313922
    11  H    0.202979
    12  H    0.216486
    13  H    0.208308
    14  C   -0.163353
    15  C   -0.296299
    16  H    0.237354
    17  H    0.222583
    18  O   -0.368251
    19  H    0.186627
    20  H    0.177804
    21  H    0.300681
 Sum of Mulliken charges =   1.00000

 Dipole moment (field-independent basis, Debye):
    X=            -21.5628    Y=              7.4390    Z=             -0.6748  Tot=             22.8199
 Quadrupole moment (field-independent basis, Debye-Ang):
   XX=             70.0654   YY=            -28.8418   ZZ=            -37.7511
   XY=            -34.5729   XZ=              3.1964   YZ=             -2.3634

  Exact polarizability:      89.198       1.001      82.052       0.506       1.092      83.301
 Approx polarizability:      92.794       0.220      90.255       0.272       1.160      91.485

 Summary of Natural Population Analysis:

                                       Natural Population
                Natural  -----------------------------------------------
    Atom  No    Charge         Core      Valence    Rydberg      Total
 -----------------------------------------------------------------------
      N    1   -0.34397      1.99949     5.33439    0.01009     7.34397
      C    2   -0.34700      1.99930     4.33394    0.01376     6.34700
      H    3    0.22755      0.00000     0.77143    0.00103     0.77245
      H    4    0.22739      0.00000     0.77148    0.00113     0.77261
      H    5    0.22616      0.00000     0.77280    0.00104     0.77384
      C    6   -0.35244      1.99929     4.33903    0.01411     6.35244
      H    7    0.22131      0.00000     0.77761    0.00109     0.77869
      H    8    0.22285      0.00000     0.77611    0.00104     0.77715
      H    9    0.24451      0.00000     0.75422    0.00127     0.75549
      C   10   -0.35586      1.99930     4.34213    0.01442     6.35586
      H   11    0.22839      0.00000     0.77035    0.00126     0.77161
      H   12    0.22736      0.00000     0.77154    0.00110     0.77264
      H   13    0.22930      0.00000     0.76960    0.00110     0.77070
      C   14   -0.18030      1.99920     4.16075    0.02035     6.18030
      C   15   -0.05275      1.99920     4.03412    0.01943     6.05275
      H   16    0.23143      0.00000     0.76704    0.00153     0.76857
      H   17    0.23655      0.00000     0.76221    0.00124     0.76345
      O   18   -0.76410      1.99978     6.75229    0.01202     8.76410
      H   19    0.19969      0.00000     0.79852    0.00179     0.80031
      H   20    0.18454      0.00000     0.81363    0.00182     0.81546
      H   21    0.48938      0.00000     0.50657    0.00405     0.51062
 =======================================================================
   * Total *    1.00000     13.99558    43.87976    0.12466    58.00000

                      1                      2                      3
                      A                      A                      A
 Frequencies --     53.4187               171.7910               230.7197
 Red. masses --      3.2598                 2.2034                 1.2292
 Frc consts  --      0.0055                 0.0383                 0.0386
 IR Inten    --      2.9339                13.2300                10.6866
 Raman Activ --      0.1621                 0.0866                 0.3242

                      4                      5                      6
                      A                      A                      A
 Frequencies --    237.1969               280.7464               289.3187
 Red. masses --      1.1007                 1.4602                 1.6637
 Frc consts  --      0.0365                 0.0678                 0.0821
 IR Inten    --    185.3196                 3.9584                 5.3180
 Raman Activ --      1.0965                 0.5347                 0.4264

                      7                      8                      9
                      A                      A                      A
 Frequencies --    311.8559               336.5464               374.1762
 Red. masses --      1.5686                 1.3165                 2.2764
 Frc consts  --      0.0899                 0.0879                 0.1878
 IR Inten    --      5.8801                 0.0112                 1.5899
 Raman Activ --      0.7593                 0.2233                 1.1925

                     10                     11                     12
                      A                      A                      A
 Frequencies --    416.6379               443.1217               452.2368
 Red. masses --      2.5233                 2.4747                 2.0827
 Frc consts  --      0.2581                 0.2863                 0.2510
 IR Inten    --      3.5071                 1.8817                 0.7915
 Raman Activ --      0.8051                 0.6215                 0.3950

                     13                     14                     15
                      A                      A                      A
 Frequencies --    555.7311               714.5828               871.1111
 Red. masses --      2.2825                 3.2234                 2.5755
 Frc consts  --      0.4153                 0.9698                 1.1515
 IR Inten    --     12.3397                 1.0241                27.8287
 Raman Activ --      3.5596                29.3415                11.2399

                     16                     17                     18
                      A                      A                      A
 Frequencies --    879.7886               956.7336               960.9794
 Red. masses --      2.2158                 2.7736                 2.4833
 Frc consts  --      1.0105                 1.4958                 1.3511
 IR Inten    --      6.8552                62.8117                34.1781
 Raman Activ --      3.6769                11.7315                12.2441

                     19                     20                     21
                      A                      A                      A
 Frequencies --   1000.1256              1079.0719              1084.5122
 Red. masses --      2.2003                 1.4989                 1.1965
 Frc consts  --      1.2967                 1.0283                 0.8291
 IR Inten    --     24.9611                 3.8329                 0.2099
 Raman Activ --      6.6240                 3.5206                 0.0885

                     22                     23                     24
                      A                      A                      A
 Frequencies --   1096.9536              1147.4214              1157.1115
 Red. masses --      2.8647                 1.3881                 1.4068
 Frc consts  --      2.0310                 1.0767                 1.1097
 IR Inten    --     99.6740                 1.5186                 3.7099
 Raman Activ --      2.7743                 5.5589                 3.6791

                     25                     26                     27
                      A                      A                      A
 Frequencies --   1220.7231              1251.3200              1274.1621
 Red. masses --      1.2210                 1.2867                 1.7396
 Frc consts  --      1.0720                 1.1870                 1.6640
 IR Inten    --     22.2408                19.4123                21.7232
 Raman Activ --      4.2943                 5.9456                 2.2385

                     28                     29                     30
                      A                      A                      A
 Frequencies --   1297.8242              1305.4702              1370.2110
 Red. masses --      1.7369                 1.4574                 1.2546
 Frc consts  --      1.7237                 1.4634                 1.3878
 IR Inten    --      1.7749                 5.8944                15.7601
 Raman Activ --      3.5626                 7.5943                12.4514

                     31                     32                     33
                      A                      A                      A
 Frequencies --   1416.7116              1446.9117              1448.6663
 Red. masses --      1.2620                 1.1454                 1.1651
 Frc consts  --      1.4924                 1.4128                 1.4406
 IR Inten    --      1.9007                 3.2439                 5.1340
 Raman Activ --      0.4857                 1.8689                 1.2750

                     34                     35                     36
                      A                      A                      A
 Frequencies --   1465.1843              1474.8632              1477.6157
 Red. masses --      1.3018                 1.1151                 1.0909
 Frc consts  --      1.6466                 1.4291                 1.4034
 IR Inten    --      3.6155                 2.8645                 1.1019
 Raman Activ --      2.4996                 6.6702                 2.3838

                     37                     38                     39
                      A                      A                      A
 Frequencies --   1485.5116              1488.3509              1494.7824
 Red. masses --      1.0426                 1.0407                 1.1406
 Frc consts  --      1.3555                 1.3582                 1.5015
 IR Inten    --      4.1972                 0.3160                11.9184
 Raman Activ --     23.4118                23.6042                 8.7834

                     40                     41                     42
                      A                      A                      A
 Frequencies --   1503.8707              1509.6780              1519.0939
 Red. masses --      1.0655                 1.0833                 1.0694
 Frc consts  --      1.4198                 1.4546                 1.4540
 IR Inten    --     48.4422                43.4692                47.4374
 Raman Activ --      3.2581                 2.0411                 4.4056

                     43                     44                     45
                      A                      A                      A
 Frequencies --   1528.3788              3028.0026              3064.6101
 Red. masses --      1.0667                 1.0599                 1.1012
 Frc consts  --      1.4681                 5.7258                 6.0936
 IR Inten    --     35.0602                41.6850                23.3455
 Raman Activ --      4.0727               237.2882               136.6573

                     46                     47                     48
                      A                      A                      A
 Frequencies --   3076.5067              3081.9652              3086.0517
 Red. masses --      1.0302                 1.0312                 1.0360
 Frc consts  --      5.7452                 5.7708                 5.8130
 IR Inten    --      4.3609                12.3451                10.7013
 Raman Activ --     27.9272                 8.0611               398.1097

                     49                     50                     51
                      A                      A                      A
 Frequencies --   3092.0589              3145.5670              3169.0949
 Red. masses --      1.0578                 1.1088                 1.1088
 Frc consts  --      5.9589                 6.4638                 6.5613
 IR Inten    --      8.0845                 5.8006                 0.5736
 Raman Activ --    452.5787                66.9370                15.7010

                     52                     53                     54
                      A                      A                      A
 Frequencies --   3170.3096              3175.2763              3176.6125
 Red. masses --      1.1081                 1.1083                 1.1079
 Frc consts  --      6.5620                 6.5835                 6.5869
 IR Inten    --      2.4585                 6.1096                10.1836
 Raman Activ --     29.6812               108.3395               190.6590

                     55                     56                     57
                      A                      A                      A
 Frequencies --   3185.3498              3203.5614              3827.0325
 Red. masses --      1.1080                 1.1072                 1.0670
 Frc consts  --      6.6240                 6.6946                 9.2073
 IR Inten    --      2.6128                 2.4753               100.5705
 Raman Activ --     68.3291                72.4535               171.5277

 - Thermochemistry -
 -------------------
 Temperature   298.150 Kelvin.  Pressure   1.00000 Atm.
 Thermochemistry will use frequencies scaled by 0.9670.

 Molecular mass:   104.10754 amu.
 Principal axes and moments of inertia in atomic units:
                           1         2         3
     Eigenvalues --   454.246011018.177961067.32838
           X            0.96367  -0.22297  -0.14707
           Y            0.23614   0.45383   0.85923
           Z            0.12484   0.86274  -0.49000
 This molecule is an asymmetric top.
 Rotational symmetry number  1.
 Warning -- assumption of classical behavior for rotation
           may cause significant error
 Rotational temperatures (Kelvin)      0.19068     0.08507     0.08115
 Rotational constants (GHZ):           3.97305     1.77252     1.69090
 Zero-point vibrational energy     500676.8 (Joules/Mol)
                                  119.66464 (Kcal/Mol)
 Warning -- explicit consideration of  13 degrees of freedom as
           vibrations may cause significant error
 Vibrational temperatures:     74.32   239.01   321.00   330.01   390.60
          (Kelvin)            402.53   433.88   468.24   520.59   579.67
                              616.51   629.20   773.19   994.20  1211.97
                             1224.05  1331.10  1337.01  1391.47  1501.31
                             1508.88  1526.19  1596.40  1609.89  1698.39
                             1740.96  1772.74  1805.66  1816.30  1906.37
                             1971.07  2013.08  2015.53  2038.51  2051.97
                             2055.80  2066.79  2070.74  2079.69  2092.33
                             2100.41  2113.51  2126.43  4212.85  4263.78
                             4280.34  4287.93  4293.62  4301.97  4376.42
                             4409.15  4410.84  4417.75  4419.61  4431.77
                             4457.11  5324.54

 Zero-point correction=                           0.190698 (Hartree/Particle)
 Thermal correction to Energy=                    0.199836
 Thermal correction to Enthalpy=                  0.200780
 Thermal correction to Gibbs Free Energy=         0.157776
 Sum of electronic and zero-point Energies=           -328.705778
 Sum of electronic and thermal Energies=              -328.696640
 Sum of electronic and thermal Enthalpies=            -328.695696
 Sum of electronic and thermal Free Energies=         -328.738700

                     E (Thermal)             CV                S
                      KCal/Mol        Cal/Mol-Kelvin    Cal/Mol-Kelvin
 Total                  125.399             34.305             90.509
 Electronic               0.000              0.000              0.000
 Translational            0.889              2.981             39.838
 Rotational               0.889              2.981             27.692
 Vibrational            123.621             28.343             22.979
 Vibration     1          0.596              1.977              4.753
 Vibration     2          0.624              1.884              2.479
 Vibration     3          0.649              1.806              1.934
 Vibration     4          0.652              1.796              1.884
 Vibration     5          0.675              1.726              1.587
 Vibration     6          0.680              1.711              1.535
 Vibration     7          0.694              1.671              1.408
 Vibration     8          0.710              1.625              1.283
 Vibration     9          0.736              1.551              1.114
 Vibration    10          0.768              1.464              0.952
 Vibration    11          0.790              1.408              0.864
 Vibration    12          0.798              1.389              0.835
 Vibration    13          0.892              1.167              0.571

 Normal termination of Gaussian 16 at Fri Jun  2 12:08:37 2023.
