 Gaussian 16, Revision C.01,
 Gaussian 16:  ES64L-G16RevC.01  3-Jul-2019

 ----------------------------------------------------------------------
 #p freq=raman scale=0.967 pop=(nbo,full,hirshfeld) guess=read geom=all
 check b3lyp/6-311+G(d,p) int=grid=ultrafine EmpiricalDispersion=GD3BJ
 SCRF=(Solvent=ethanol) scf=(xqc,intrep,maxconventionalcycle=350) nosym
 m
 ----------------------------------------------------------------------

 Structure from the checkpoint file:  "/scratch1/svicchi/G09-659875.pbs02/02-freq/MEA-CO2_binding_direct-site_index-5-freq.chk"
 ---------------------------------------
 MEA-CO2_binding_direct-site_index-5.gjf
 ---------------------------------------
 Charge =  0 Multiplicity = 1

                          Input orientation:
 ---------------------------------------------------------------------
 Center     Atomic      Atomic             Coordinates (Angstroms)
 Number     Number       Type             X           Y           Z
 ---------------------------------------------------------------------
      1          8           0        1.808479   -0.539337    0.281529
      2          6           0        2.919296    0.329678    0.524326
      3          6           0        4.251868   -0.322104    0.167521
      4          1           0        2.887990    0.559305    1.592423
      5          1           0        2.805099    1.269896   -0.025895
      6          7           0        5.354867    0.599227    0.469401
      7          1           0        4.271983   -0.530689   -0.906614
      8          1           0        4.324783   -1.284726    0.692019
      9          1           0        1.743016   -0.689531   -0.668164
     10          1           0        6.236723    0.203843    0.159028
     11          1           0        5.439888    0.732684    1.473200
     12          6           0        5.162894    2.815412   -1.271675
     13          8           0        4.708074    2.121649   -2.085208
     14          8           0        5.611554    3.575681   -0.516789
 ---------------------------------------------------------------------

 SCF Done:  E(RB3LYP) =  -399.134000062     A.U. after    1 cycles

 Alpha  occ. eigenvalues --  -19.19803 -19.19794 -19.13223 -14.30268 -10.35743
 Alpha  occ. eigenvalues --  -10.21818 -10.19548  -1.15955  -1.12062  -1.03067
 Alpha  occ. eigenvalues --   -0.89071  -0.72585  -0.62136  -0.56334  -0.52295
 Alpha  occ. eigenvalues --   -0.52142  -0.51482  -0.51182  -0.49852  -0.45854
 Alpha  occ. eigenvalues --   -0.43726  -0.40789  -0.38424  -0.37179  -0.37005
 Alpha  occ. eigenvalues --   -0.33737  -0.29065  -0.25731
 Alpha virt. eigenvalues --   -0.00704   0.00626   0.01816   0.02810   0.03127
 Alpha virt. eigenvalues --    0.03524   0.05502   0.05714   0.06237   0.06852
 Alpha virt. eigenvalues --    0.08025   0.09966   0.10586   0.11916   0.12274

 Mulliken charges:
               1
     1  O   -0.392105
     2  C   -0.135810
     3  C   -0.310689
     4  H    0.144866
     5  H    0.139934
     6  N   -0.530521
     7  H    0.158607
     8  H    0.145350
     9  H    0.274661
    10  H    0.257586
    11  H    0.239571
    12  C    0.497006
    13  O   -0.238048
    14  O   -0.250409
 Sum of Mulliken charges =  -0.00000

 Dipole moment (field-independent basis, Debye):
    X=              1.8519    Y=             -1.0435    Z=             -0.3987  Tot=              2.1627
 Quadrupole moment (field-independent basis, Debye-Ang):
   XX=            -29.7381   YY=            -48.2879   ZZ=            -40.7376
   XY=             -9.1690   XZ=              2.7384   YZ=              1.2807

  Exact polarizability:      65.603       7.800      72.341       5.892       6.693      67.623
 Approx polarizability:      68.913      10.868      79.894       9.815      14.315      80.607

 Summary of Natural Population Analysis:

                                       Natural Population
                Natural  -----------------------------------------------
    Atom  No    Charge         Core      Valence    Rydberg      Total
 -----------------------------------------------------------------------
      O    1   -0.76297      1.99980     6.74929    0.01388     8.76297
      C    2   -0.03488      1.99922     4.01202    0.02363     6.03488
      C    3   -0.21240      1.99933     4.19443    0.01865     6.21240
      H    4    0.17349      0.00000     0.82442    0.00209     0.82651
      H    5    0.16452      0.00000     0.83290    0.00258     0.83548
      N    6   -0.86883      1.99953     5.84771    0.02158     7.86883
      H    7    0.18731      0.00000     0.81040    0.00230     0.81269
      H    8    0.17070      0.00000     0.82659    0.00271     0.82930
      H    9    0.47147      0.00000     0.52409    0.00445     0.52853
      H   10    0.36780      0.00000     0.63001    0.00218     0.63220
      H   11    0.36129      0.00000     0.63618    0.00253     0.63871
      C   12    1.02520      1.99972     2.92241    0.05267     4.97480
      O   13   -0.52269      1.99971     6.50879    0.01420     8.52269
      O   14   -0.52001      1.99971     6.50644    0.01386     8.52001
 =======================================================================
   * Total *    0.00000     13.99702    41.82568    0.17730    56.00000

                      1                      2                      3
                      A                      A                      A
 Frequencies --     23.7946                46.3241                65.9685
 Red. masses --      9.6422                 4.0797                 2.5953
 Frc consts  --      0.0032                 0.0052                 0.0067
 IR Inten    --      0.5930                 0.6065                 3.8128
 Raman Activ --      2.7081                 0.4361                 0.7472

                      4                      5                      6
                      A                      A                      A
 Frequencies --     95.0125               127.0789               177.8391
 Red. masses --      5.2226                 4.1153                 3.3041
 Frc consts  --      0.0278                 0.0392                 0.0616
 IR Inten    --      1.7612                11.6509                 6.3133
 Raman Activ --      1.0647                 3.3746                 2.3058

                      7                      8                      9
                      A                      A                      A
 Frequencies --    259.8019               300.1679               313.9277
 Red. masses --      1.3346                 1.2423                 1.7902
 Frc consts  --      0.0531                 0.0660                 0.1039
 IR Inten    --     52.1108                58.8174               155.5653
 Raman Activ --      0.2959                 0.3216                 0.4149

                     10                     11                     12
                      A                      A                      A
 Frequencies --    475.5337               607.3293               664.2601
 Red. masses --      5.1184                12.6554                12.6970
 Frc consts  --      0.6819                 2.7503                 3.3009
 IR Inten    --      8.3185               125.6531                46.3247
 Raman Activ --      5.0742                28.6283                 0.0735

                     13                     14                     15
                      A                      A                      A
 Frequencies --    800.9372               873.8023               961.4856
 Red. masses --      1.0980                 1.2580                 1.9995
 Frc consts  --      0.4150                 0.5659                 1.0891
 IR Inten    --     40.7031               163.1545                19.0974
 Raman Activ --      0.3557                10.0464                 8.9350

                     16                     17                     18
                      A                      A                      A
 Frequencies --   1041.1041              1071.1759              1107.7840
 Red. masses --      5.6393                 3.1021                 1.5003
 Frc consts  --      3.6013                 2.0971                 1.0847
 IR Inten    --    182.2052                 0.3007                17.1750
 Raman Activ --      2.0785                17.1749                 2.0613

                     19                     20                     21
                      A                      A                      A
 Frequencies --   1140.6771              1281.6132              1319.6548
 Red. masses --      1.2498                 1.3323                 1.1609
 Frc consts  --      0.9581                 1.2893                 1.1911
 IR Inten    --      9.9528                12.7608                 1.2840
 Raman Activ --      2.4377                 3.9890                14.1339

                     22                     23                     24
                      A                      A                      A
 Frequencies --   1360.3537              1366.5713              1402.9112
 Red. masses --      1.1981                15.7048                 1.2134
 Frc consts  --      1.3063                17.2802                 1.4071
 IR Inten    --      3.2652                 4.8227                39.0312
 Raman Activ --     14.7619                53.0664                 2.0978

                     25                     26                     27
                      A                      A                      A
 Frequencies --   1436.3563              1495.2427              1512.7783
 Red. masses --      1.4315                 1.0799                 1.0894
 Frc consts  --      1.7401                 1.4225                 1.4688
 IR Inten    --      0.4368                 0.3220                 5.1803
 Raman Activ --      3.0364                27.5033                 0.6362

                     28                     29                     30
                      A                      A                      A
 Frequencies --   1648.3623              2375.8863              2981.4490
 Red. masses --      1.0873                12.8625                 1.0691
 Frc consts  --      1.7406                42.7788                 5.5989
 IR Inten    --     47.9135              1083.5733                88.4512
 Raman Activ --      5.3337                 1.2430               358.3796

                     31                     32                     33
                      A                      A                      A
 Frequencies --   3023.1908              3049.6175              3081.5161
 Red. masses --      1.0615                 1.0918                 1.1043
 Frc consts  --      5.7160                 5.9825                 6.1783
 IR Inten    --     93.6074                12.6203                81.9263
 Raman Activ --    189.7544               271.9815                42.1370

                     34                     35                     36
                      A                      A                      A
 Frequencies --   3495.9416              3569.0301              3818.2315
 Red. masses --      1.0508                 1.0925                 1.0666
 Frc consts  --      7.5665                 8.1990                 9.1614
 IR Inten    --      0.4063                 6.6649                53.6483
 Raman Activ --    225.6415               108.8966               120.8057

 - Thermochemistry -
 -------------------
 Temperature   298.150 Kelvin.  Pressure   1.00000 Atm.
 Thermochemistry will use frequencies scaled by 0.9670.

 Molecular mass:   105.04259 amu.
 Principal axes and moments of inertia in atomic units:
                           1         2         3
     Eigenvalues --   435.593451589.010291748.88783
           X            0.59705   0.71196  -0.36964
           Y            0.73271  -0.29641   0.61259
           Z           -0.32658   0.63659   0.69864
 This molecule is an asymmetric top.
 Rotational symmetry number  1.
 Warning -- assumption of classical behavior for rotation
           may cause significant error
 Rotational temperatures (Kelvin)      0.19884     0.05451     0.04953
 Rotational constants (GHZ):           4.14318     1.13576     1.03194
 Zero-point vibrational energy     279785.1 (Joules/Mol)
                                   66.87024 (Kcal/Mol)
 Warning -- explicit consideration of  11 degrees of freedom as
           vibrations may cause significant error
 Vibrational temperatures:     33.11    64.45    91.78   132.19   176.80
          (Kelvin)            247.43   361.46   417.62   436.77   661.61
                              844.98   924.18  1114.34  1215.72  1337.71
                             1448.49  1490.32  1541.26  1587.02  1783.11
                             1836.03  1892.66  1901.31  1951.87  1998.40
                             2080.33  2104.72  2293.36  3305.56  4148.08
                             4206.16  4242.92  4287.31  4863.89  4965.58
                             5312.30

 Zero-point correction=                           0.106565 (Hartree/Particle)
 Thermal correction to Energy=                    0.116284
 Thermal correction to Enthalpy=                  0.117228
 Thermal correction to Gibbs Free Energy=         0.069478
 Sum of electronic and zero-point Energies=           -399.027436
 Sum of electronic and thermal Energies=              -399.017716
 Sum of electronic and thermal Enthalpies=            -399.016772
 Sum of electronic and thermal Free Energies=         -399.064522

                     E (Thermal)             CV                S
                      KCal/Mol        Cal/Mol-Kelvin    Cal/Mol-Kelvin
 Total                   72.969             30.233            100.499
 Electronic               0.000              0.000              0.000
 Translational            0.889              2.981             39.865
 Rotational               0.889              2.981             28.583
 Vibrational             71.192             24.271             32.051
 Vibration     1          0.593              1.985              6.356
 Vibration     2          0.595              1.979              5.035
 Vibration     3          0.597              1.972              4.336
 Vibration     4          0.602              1.955              3.620
 Vibration     5          0.610              1.930              3.054
 Vibration     6          0.626              1.877              2.414
 Vibration     7          0.663              1.761              1.722
 Vibration     8          0.686              1.692              1.472
 Vibration     9          0.695              1.667              1.397
 Vibration    10          0.818              1.339              0.767
 Vibration    11          0.944              1.059              0.472

 Normal termination of Gaussian 16 at Fri Jun  2 13:30:46 2023.
