 Gaussian 16, Revision C.01,
 Gaussian 16:  ES64L-G16RevC.01  3-Jul-2019

 ----------------------------------------------------------------------
 #p freq=raman scale=0.967 pop=(nbo,full,hirshfeld) guess=read geom=all
 check b3lyp/6-311+G(d,p) int=grid=ultrafine EmpiricalDispersion=GD3BJ
 SCRF=(Solvent=ethanol) scf=(xqc,intrep,maxconventionalcycle=350) nosym
 m
 ----------------------------------------------------------------------

 Structure from the checkpoint file:  "/scratch1/svicchi/G09-659776.pbs02/02-freq/124triz-isolated-freq.chk"
 --------------------
 124triz-isolated.gjf
 --------------------
 Charge = -1 Multiplicity = 1

                          Input orientation:
 ---------------------------------------------------------------------
 Center     Atomic      Atomic             Coordinates (Angstroms)
 Number     Number       Type             X           Y           Z
 ---------------------------------------------------------------------
      1          6           0       -1.713640    1.399285   -0.000000
      2          7           0       -1.777412    0.046664   -0.000000
      3          6           0       -0.461560   -0.272861    0.000000
      4          7           0        0.355398    0.782147    0.000000
      5          7           0       -0.471424    1.886011   -0.000000
      6          1           0       -0.095781   -1.291742    0.000000
      7          1           0       -2.588050    2.037486    0.000000
 ---------------------------------------------------------------------

 SCF Done:  E(RB3LYP) =  -241.863101682     A.U. after    1 cycles

 Alpha  occ. eigenvalues --  -14.28929 -14.28910 -14.27160 -10.17909 -10.17908
 Alpha  occ. eigenvalues --   -1.00482  -0.83248  -0.75629  -0.56171  -0.55686
 Alpha  occ. eigenvalues --   -0.46779  -0.40386  -0.38451  -0.31903  -0.25203
 Alpha  occ. eigenvalues --   -0.24911  -0.24285  -0.22509
 Alpha virt. eigenvalues --    0.02182   0.04041   0.04562   0.04943   0.05177
 Alpha virt. eigenvalues --    0.06715   0.06746   0.08283   0.10429   0.11802
 Alpha virt. eigenvalues --    0.12952   0.14278   0.17267   0.17468   0.20331

 Mulliken charges:
               1
     1  C   -0.087068
     2  N   -0.399708
     3  C   -0.087356
     4  N   -0.331427
     5  N   -0.331129
     6  H    0.118348
     7  H    0.118340
 Sum of Mulliken charges =  -1.00000

 Dipole moment (field-independent basis, Debye):
    X=              2.1734    Y=             -4.9882    Z=             -0.0000  Tot=              5.4411
 Quadrupole moment (field-independent basis, Debye-Ang):
   XX=            -41.0304   YY=            -41.4693   ZZ=            -33.0181
   XY=             -4.1465   XZ=              0.0000   YZ=             -0.0000

  Exact polarizability:      75.938       0.853      75.429      -0.000       0.000      44.331
 Approx polarizability:      87.266       1.813      86.194      -0.000      -0.000      48.207

 Summary of Natural Population Analysis:

                                       Natural Population
                Natural  -----------------------------------------------
    Atom  No    Charge         Core      Valence    Rydberg      Total
 -----------------------------------------------------------------------
      C    1    0.10121      1.99945     3.85420    0.04515     5.89879
      N    2   -0.64667      1.99949     5.62097    0.02621     7.64667
      C    3    0.10118      1.99945     3.85423    0.04515     5.89882
      N    4   -0.45504      1.99950     5.41765    0.03789     7.45504
      N    5   -0.45496      1.99950     5.41756    0.03790     7.45496
      H    6    0.17713      0.00000     0.82131    0.00156     0.82287
      H    7    0.17715      0.00000     0.82129    0.00156     0.82285
 =======================================================================
   * Total *   -1.00000      9.99739    25.80719    0.19542    36.00000

                      1                      2                      3
                      A                      A                      A
 Frequencies --    693.2201               705.5429               854.0879
 Red. masses --      2.8831                 5.6233                 1.3889
 Frc consts  --      0.8163                 1.6493                 0.5969
 IR Inten    --     50.5655                 0.1185                 3.9898
 Raman Activ --      0.0159                 0.4679                 5.8536

                      4                      5                      6
                      A                      A                      A
 Frequencies --    854.9159               976.5072               989.5399
 Red. masses --      1.4602                 6.3761                 8.6949
 Frc consts  --      0.6288                 3.5823                 5.0163
 IR Inten    --     39.0921                21.3641                 3.4970
 Raman Activ --      1.9198                 1.4491                 0.7350

                      7                      8                      9
                      A                      A                      A
 Frequencies --   1030.8842              1158.5089              1203.1475
 Red. masses --      6.3846                 1.8141                 1.6226
 Frc consts  --      3.9976                 1.4345                 1.3839
 IR Inten    --     31.1290                66.4823                11.7618
 Raman Activ --     12.5726                 8.5307                 0.1225

                     10                     11                     12
                      A                      A                      A
 Frequencies --   1260.8509              1265.8974              1386.3559
 Red. masses --      6.0046                 7.6420                 3.1379
 Frc consts  --      5.6242                 7.2153                 3.5534
 IR Inten    --      2.0250                36.0271                 4.2224
 Raman Activ --    113.5231                23.2205                25.4433

                     13                     14                     15
                      A                      A                      A
 Frequencies --   1493.4843              3196.1038              3201.6116
 Red. masses --      3.1237                 1.0920                 1.0976
 Frc consts  --      4.1051                 6.5723                 6.6286
 IR Inten    --     96.4337                58.7036                 2.1069
 Raman Activ --     17.8184                59.6142               352.4075

 - Thermochemistry -
 -------------------
 Temperature   298.150 Kelvin.  Pressure   1.00000 Atm.
 Thermochemistry will use frequencies scaled by 0.9670.

 Molecular mass:    68.02487 amu.
 Principal axes and moments of inertia in atomic units:
                           1         2         3
     Eigenvalues --   172.18197 174.77927 346.96124
           X            0.80236  -0.59684  -0.00000
           Y            0.59684   0.80236   0.00000
           Z            0.00000  -0.00000   1.00000
 This molecule is an asymmetric top.
 Rotational symmetry number  1.
 Rotational temperatures (Kelvin)      0.50304     0.49556     0.24964
 Rotational constants (GHZ):          10.48159    10.32583     5.20156
 Zero-point vibrational energy     117244.4 (Joules/Mol)
                                   28.02208 (Kcal/Mol)
 Vibrational temperatures:    964.48   981.62  1188.29  1189.44  1358.61
          (Kelvin)           1376.74  1434.27  1611.83  1673.94  1754.22
                             1761.24  1928.83  2077.88  4446.73  4454.39

 Zero-point correction=                           0.044656 (Hartree/Particle)
 Thermal correction to Energy=                    0.048091
 Thermal correction to Enthalpy=                  0.049035
 Thermal correction to Gibbs Free Energy=         0.018619
 Sum of electronic and zero-point Energies=           -241.818446
 Sum of electronic and thermal Energies=              -241.815010
 Sum of electronic and thermal Enthalpies=            -241.814066
 Sum of electronic and thermal Free Energies=         -241.844483

                     E (Thermal)             CV                S
                      KCal/Mol        Cal/Mol-Kelvin    Cal/Mol-Kelvin
 Total                   30.178             11.275             64.017
 Electronic               0.000              0.000              0.000
 Translational            0.889              2.981             38.570
 Rotational               0.889              2.981             23.861
 Vibrational             28.400              5.313              1.587

 Optimization completed.
    -- Stationary point found.
 Normal termination of Gaussian 16 at Fri Jun  2 11:10:05 2023.
