 Gaussian 16, Revision C.01,
 Gaussian 16:  ES64L-G16RevC.01  3-Jul-2019

 ----------------------------------------------------------------------
 #p freq=raman scale=0.967 pop=(nbo,full,hirshfeld) guess=read geom=all
 check b3lyp/6-311+G(d,p) int=grid=ultrafine EmpiricalDispersion=GD3BJ
 SCRF=(Solvent=ethanol) scf=(xqc,intrep,maxconventionalcycle=350) nosym
 m
 ----------------------------------------------------------------------

 Structure from the checkpoint file:  "/scratch1/svicchi/G09-659824.pbs02/02-freq/pyrrolide-CO2_binding-site_index-4-freq.chk"
 --------------------------------------
 pyrrolide-CO2_binding-site_index-4.gjf
 --------------------------------------
 Charge = -1 Multiplicity = 1

                          Input orientation:
 ---------------------------------------------------------------------
 Center     Atomic      Atomic             Coordinates (Angstroms)
 Number     Number       Type             X           Y           Z
 ---------------------------------------------------------------------
      1          6           0       -2.861706   -1.700589   -0.000000
      2          6           0       -1.431006   -1.654668   -0.000000
      3          6           0       -3.310683   -0.399284    0.000000
      4          6           0       -1.066095   -0.327279    0.000000
      5          7           0       -2.214115    0.438137    0.000000
      6          1           0       -4.303971    0.014410    0.000000
      7          1           0       -3.482275   -2.584351   -0.000000
      8          1           0       -0.755179   -2.496931   -0.000000
      9          1           0       -0.101019    0.148745   -0.000000
     10          6           0       -2.262137    1.913695   -0.000000
     11          8           0       -1.149189    2.471834    0.000000
     12          8           0       -3.409263    2.397855   -0.000000
 ---------------------------------------------------------------------

 SCF Done:  E(RB3LYP) =  -398.439526720     A.U. after    1 cycles

 Alpha  occ. eigenvalues --  -19.06405 -19.06401 -14.34569 -10.28414 -10.18077
 Alpha  occ. eigenvalues --  -10.18074 -10.15308 -10.15266  -1.04640  -0.95567
 Alpha  occ. eigenvalues --   -0.95145  -0.76816  -0.71343  -0.60109  -0.56221
 Alpha  occ. eigenvalues --   -0.53677  -0.46831  -0.43707  -0.42850  -0.42684
 Alpha  occ. eigenvalues --   -0.39740  -0.38743  -0.37202  -0.36943  -0.26927
 Alpha  occ. eigenvalues --   -0.25933  -0.24236  -0.24114  -0.21370
 Alpha virt. eigenvalues --    0.00379   0.01428   0.03289   0.03559   0.04954
 Alpha virt. eigenvalues --    0.05532   0.05683   0.06080   0.06247   0.08918
 Alpha virt. eigenvalues --    0.09487   0.09617   0.09624   0.10099   0.12015

 Mulliken charges:
               1
     1  C   -0.286619
     2  C   -0.286326
     3  C   -0.120905
     4  C   -0.121500
     5  N   -0.060092
     6  H    0.148582
     7  H    0.129338
     8  H    0.129343
     9  H    0.148782
    10  C    0.449127
    11  O   -0.564834
    12  O   -0.564895
 Sum of Mulliken charges =  -1.00000

 Dipole moment (field-independent basis, Debye):
    X=             10.8993    Y=            -10.1579    Z=             -0.0000  Tot=             14.8989
 Quadrupole moment (field-independent basis, Debye-Ang):
   XX=            -78.8077   YY=            -79.1747   ZZ=            -51.3675
   XY=             23.1634   XZ=             -0.0000   YZ=             -0.0000

  Exact polarizability:     112.963      -0.364     124.119       0.000       0.000      64.587
 Approx polarizability:     134.165       0.022     133.832       0.000       0.000      70.084

 Summary of Natural Population Analysis:

                                       Natural Population
                Natural  -----------------------------------------------
    Atom  No    Charge         Core      Valence    Rydberg      Total
 -----------------------------------------------------------------------
      C    1   -0.31841      1.99918     4.30025    0.01899     6.31841
      C    2   -0.31839      1.99918     4.30022    0.01899     6.31839
      C    3   -0.04580      1.99919     4.02199    0.02462     6.04580
      C    4   -0.04591      1.99919     4.02211    0.02462     6.04591
      N    5   -0.47322      1.99922     5.44978    0.02421     7.47322
      H    6    0.22156      0.00000     0.77673    0.00171     0.77844
      H    7    0.21477      0.00000     0.78384    0.00139     0.78523
      H    8    0.21475      0.00000     0.78386    0.00139     0.78525
      H    9    0.22163      0.00000     0.77666    0.00171     0.77837
      C   10    0.91702      1.99958     3.02379    0.05961     5.08298
      O   11   -0.79394      1.99976     6.78168    0.01250     8.79394
      O   12   -0.79406      1.99976     6.78180    0.01250     8.79406
 =======================================================================
   * Total *   -1.00000     15.99505    41.80271    0.20223    58.00000

                      1                      2                      3
                      A                      A                      A
 Frequencies --     89.6339               164.6425               239.5947
 Red. masses --      6.2053                 6.1333                 5.9718
 Frc consts  --      0.0294                 0.0980                 0.2020
 IR Inten    --      0.0460                 3.0545                 1.3532
 Raman Activ --      0.0696                 3.0299                 0.4383

                      4                      5                      6
                      A                      A                      A
 Frequencies --    423.3403               551.4327               618.0195
 Red. masses --      9.1716                 7.6919                 3.3899
 Frc consts  --      0.9684                 1.3781                 0.7629
 IR Inten    --      0.3639                 0.8648                20.1083
 Raman Activ --      5.2756                 1.8608                 1.8531

                      7                      8                      9
                      A                      A                      A
 Frequencies --    629.6010               716.7771               736.5886
 Red. masses --      3.1600                 1.2879                 1.2101
 Frc consts  --      0.7380                 0.3899                 0.3868
 IR Inten    --      0.0452                 2.0340               205.9999
 Raman Activ --      0.2526                20.3247                 7.9262

                     10                     11                     12
                      A                      A                      A
 Frequencies --    769.6386               799.3029               860.0263
 Red. masses --     12.4900                 8.3556                 1.3798
 Frc consts  --      4.3590                 3.1452                 0.6013
 IR Inten    --    290.3640                41.5598                 2.5396
 Raman Activ --      6.6263                 3.6527                10.3554

                     13                     14                     15
                      A                      A                      A
 Frequencies --    883.8616               892.9299               973.4601
 Red. masses --      1.3100                 5.6918                 2.1852
 Frc consts  --      0.6030                 2.6738                 1.2200
 IR Inten    --      0.0625                 0.7050                 0.2324
 Raman Activ --      0.8622                11.8790                17.3643

                     16                     17                     18
                      A                      A                      A
 Frequencies --   1048.6468              1068.4640              1074.5326
 Red. masses --      1.7646                 1.6775                 1.2238
 Frc consts  --      1.1433                 1.1283                 0.8325
 IR Inten    --    267.5188                81.5410                34.6655
 Raman Activ --     22.3668                13.4812                 6.6815

                     19                     20                     21
                      A                      A                      A
 Frequencies --   1231.7995              1263.8021              1292.0103
 Red. masses --      5.1542                 1.3442                10.1088
 Frc consts  --      4.6078                 1.2649                 9.9422
 IR Inten    --    250.6527                 1.3034               894.6772
 Raman Activ --    120.0772                 0.1991                42.9159

                     22                     23                     24
                      A                      A                      A
 Frequencies --   1359.9564              1415.4545              1489.2385
 Red. masses --      6.8703                 3.9485                 3.3246
 Frc consts  --      7.4865                 4.6609                 4.3443
 IR Inten    --      3.8219                 0.0544                27.4476
 Raman Activ --      6.8108               117.2805                90.6801

                     25                     26                     27
                      A                      A                      A
 Frequencies --   1540.8873              1684.8461              3216.6186
 Red. masses --      4.2486                12.7352                 1.0904
 Frc consts  --      5.9435                21.2999                 6.6471
 IR Inten    --      8.6436              1122.7561                13.7965
 Raman Activ --      0.6050                14.4251               184.2321

                     28                     29                     30
                      A                      A                      A
 Frequencies --   3230.4871              3275.0599              3278.6994
 Red. masses --      1.0975                 1.0965                 1.1015
 Frc consts  --      6.7484                 6.9293                 6.9766
 IR Inten    --     10.3497                 0.0219                 6.0000
 Raman Activ --    247.6825                18.9106               308.9859

 - Thermochemistry -
 -------------------
 Temperature   298.150 Kelvin.  Pressure   1.00000 Atm.
 Thermochemistry will use frequencies scaled by 0.9670.

 Molecular mass:   110.02420 amu.
 Principal axes and moments of inertia in atomic units:
                           1         2         3
     Eigenvalues --   343.217171052.574521395.79169
           X           -0.03229   0.99948  -0.00000
           Y            0.99948   0.03229   0.00000
           Z           -0.00000   0.00000   1.00000
 This molecule is an asymmetric top.
 Rotational symmetry number  1.
 Rotational temperatures (Kelvin)      0.25236     0.08229     0.06205
 Rotational constants (GHZ):           5.25831     1.71460     1.29299
 Zero-point vibrational energy     212961.1 (Joules/Mol)
                                   50.89892 (Kcal/Mol)
 Warning -- explicit consideration of   7 degrees of freedom as
           vibrations may cause significant error
 Vibrational temperatures:    124.71   229.07   333.35   588.99   767.21
          (Kelvin)            859.85   875.96   997.25  1024.81  1070.80
                             1112.07  1196.55  1229.71  1242.33  1354.37
                             1458.98  1486.55  1494.99  1713.80  1758.32
                             1797.57  1892.10  1969.32  2071.97  2143.83
                             2344.12  4475.27  4494.57  4556.58  4561.65

 Zero-point correction=                           0.081113 (Hartree/Particle)
 Thermal correction to Energy=                    0.087490
 Thermal correction to Enthalpy=                  0.088434
 Thermal correction to Gibbs Free Energy=         0.050214
 Sum of electronic and zero-point Energies=           -398.358414
 Sum of electronic and thermal Energies=              -398.352037
 Sum of electronic and thermal Enthalpies=            -398.351093
 Sum of electronic and thermal Free Energies=         -398.389313

                     E (Thermal)             CV                S
                      KCal/Mol        Cal/Mol-Kelvin    Cal/Mol-Kelvin
 Total                   54.901             23.629             80.441
 Electronic               0.000              0.000              0.000
 Translational            0.889              2.981             40.003
 Rotational               0.889              2.981             27.713
 Vibrational             53.123             17.667             12.725
 Vibration     1          0.601              1.958              3.734
 Vibration     2          0.621              1.892              2.559
 Vibration     3          0.653              1.793              1.866
 Vibration     4          0.774              1.450              0.929
 Vibration     5          0.888              1.176              0.580
 Vibration     6          0.956              1.037              0.454
 Vibration     7          0.968              1.013              0.435

 Optimization completed.
    -- Stationary point found.
 Normal termination of Gaussian 16 at Fri Jun  2 11:33:54 2023.
