 Gaussian 16, Revision C.01,
 Gaussian 16:  ES64L-G16RevC.01  3-Jul-2019

 ----------------------------------------------------------------------
 #p freq=raman scale=0.967 pop=(nbo,full,hirshfeld) guess=read geom=all
 check b3lyp/6-311+G(d,p) int=grid=ultrafine EmpiricalDispersion=GD3BJ
 SCRF=(Solvent=ethanol) scf=(xqc,intrep,maxconventionalcycle=350) nosym
 m
 ----------------------------------------------------------------------

 Structure from the checkpoint file:  "/scratch1/svicchi/G09-659818.pbs02/02-freq/bentriz-isolated-freq.chk"
 --------------------
 bentriz-isolated.gjf
 --------------------
 Charge = -1 Multiplicity = 1

                          Input orientation:
 ---------------------------------------------------------------------
 Center     Atomic      Atomic             Coordinates (Angstroms)
 Number     Number       Type             X           Y           Z
 ---------------------------------------------------------------------
      1          6           0       -1.789949   -0.955978   -0.000000
      2          6           0       -1.781982   -2.376141   -0.000000
      3          6           0       -0.613305   -0.227222    0.000000
      4          6           0        0.599393   -0.943597    0.000000
      5          6           0        0.607395   -2.361868    0.000000
      6          6           0       -0.597266   -3.091721    0.000000
      7          7           0        1.900045   -0.530947   -0.000000
      8          7           0        2.646968   -1.641165   -0.000000
      9          7           0        1.912669   -2.759797   -0.000000
     10          1           0       -0.623855    0.857390    0.000000
     11          1           0       -2.742508   -0.437571   -0.000000
     12          1           0       -2.728682   -2.905174   -0.000000
     13          1           0       -0.595813   -4.176381    0.000000
 ---------------------------------------------------------------------

 SCF Done:  E(RB3LYP) =  -395.535897004     A.U. after    1 cycles

 Alpha  occ. eigenvalues --  -14.33371 -14.29842 -14.29839 -10.17306 -10.17260
 Alpha  occ. eigenvalues --  -10.16745 -10.16744 -10.16485 -10.16440  -1.03525
 Alpha  occ. eigenvalues --   -0.84072  -0.83554  -0.74185  -0.73223  -0.61982
 Alpha  occ. eigenvalues --   -0.58751  -0.56192  -0.48757  -0.46769  -0.45157
 Alpha  occ. eigenvalues --   -0.43010  -0.42482  -0.37160  -0.36260  -0.33816
 Alpha  occ. eigenvalues --   -0.30670  -0.28609  -0.25615  -0.24630  -0.22802
 Alpha  occ. eigenvalues --   -0.21012
 Alpha virt. eigenvalues --   -0.02455   0.01415   0.02611   0.03195   0.03209
 Alpha virt. eigenvalues --    0.04592   0.05342   0.05631   0.06429   0.07536
 Alpha virt. eigenvalues --    0.08500   0.08928   0.09411   0.09855   0.12492

 Mulliken charges:
               1
     1  C   -0.200696
     2  C   -0.200750
     3  C   -0.194107
     4  C    0.015507
     5  C    0.015310
     6  C   -0.193798
     7  N   -0.348055
     8  N   -0.070944
     9  N   -0.348021
    10  H    0.128577
    11  H    0.134198
    12  H    0.134199
    13  H    0.128581
 Sum of Mulliken charges =  -1.00000

 Dipole moment (field-independent basis, Debye):
    X=            -10.7896    Y=              7.8938    Z=              0.0000  Tot=             13.3689
 Quadrupole moment (field-independent basis, Debye-Ang):
   XX=            -82.4858   YY=            -73.4995   ZZ=            -57.7821
   XY=             17.7455   XZ=             -0.0000   YZ=             -0.0000

  Exact polarizability:     185.072       0.220     146.105      -0.000      -0.000      75.509
 Approx polarizability:     219.251       0.210     181.407      -0.000      -0.000      84.987

 Summary of Natural Population Analysis:

                                       Natural Population
                Natural  -----------------------------------------------
    Atom  No    Charge         Core      Valence    Rydberg      Total
 -----------------------------------------------------------------------
      C    1   -0.24292      1.99919     4.22503    0.01870     6.24292
      C    2   -0.24292      1.99919     4.22503    0.01870     6.24292
      C    3   -0.22341      1.99907     4.20649    0.01785     6.22341
      C    4    0.04495      1.99896     3.92170    0.03439     5.95505
      C    5    0.04496      1.99896     3.92170    0.03439     5.95504
      C    6   -0.22341      1.99907     4.20649    0.01785     6.22341
      N    7   -0.40966      1.99944     5.37553    0.03469     7.40966
      N    8   -0.16868      1.99963     5.12406    0.04499     7.16868
      N    9   -0.40968      1.99944     5.37555    0.03469     7.40968
      H   10    0.20902      0.00000     0.78779    0.00319     0.79098
      H   11    0.20636      0.00000     0.79215    0.00148     0.79364
      H   12    0.20636      0.00000     0.79216    0.00148     0.79364
      H   13    0.20902      0.00000     0.78779    0.00319     0.79098
 =======================================================================
   * Total *   -1.00000     17.99296    43.74146    0.26558    62.00000

                      1                      2                      3
                      A                      A                      A
 Frequencies --    218.4834               262.2299               419.8762
 Red. masses --      6.0547                 5.5961                 6.3438
 Frc consts  --      0.1703                 0.2267                 0.6589
 IR Inten    --      1.2023                 0.0000                 2.2488
 Raman Activ --      0.2357                 0.1174                 2.1059

                      4                      5                      6
                      A                      A                      A
 Frequencies --    432.2215               549.8689               591.6950
 Red. masses --      2.7640                 7.9769                 3.8918
 Frc consts  --      0.3042                 1.4210                 0.8028
 IR Inten    --     10.1840                 5.0557                 0.0000
 Raman Activ --      1.6568                 8.5709                 1.2655

                      7                      8                      9
                      A                      A                      A
 Frequencies --    637.3231               702.4433               753.0855
 Red. masses --      6.7647                 5.4389                 1.4708
 Frc consts  --      1.6189                 1.5812                 0.4915
 IR Inten    --      0.0814                16.0476               124.8618
 Raman Activ --     20.8652                 0.9083                10.0298

                     10                     11                     12
                      A                      A                      A
 Frequencies --    755.3127               792.7033               848.7998
 Red. masses --      5.1588                 5.3000                 1.4750
 Frc consts  --      1.7340                 1.9622                 0.6261
 IR Inten    --      0.0007                17.9492                 0.0000
 Raman Activ --      1.1429                81.3758                 6.0934

                     13                     14                     15
                      A                      A                      A
 Frequencies --    914.1122               946.3821               976.8725
 Red. masses --      6.5296                 1.3617                 1.2463
 Frc consts  --      3.2146                 0.7186                 0.7007
 IR Inten    --      0.0011                 1.8567                 0.0000
 Raman Activ --      0.0672                 6.9098                 1.8394

                     16                     17                     18
                      A                      A                      A
 Frequencies --    995.3476              1021.0631              1089.4367
 Red. masses --      4.0933                 3.2250                 8.8700
 Frc consts  --      2.3893                 1.9810                 6.2026
 IR Inten    --      1.2680                25.2031               149.7832
 Raman Activ --      2.3424               131.5566                 1.6948

                     19                     20                     21
                      A                      A                      A
 Frequencies --   1140.6535              1154.2843              1173.3920
 Red. masses --      1.4148                 1.3941                 4.3960
 Frc consts  --      1.0846                 1.0944                 3.5661
 IR Inten    --     46.3005                 2.6288                25.2868
 Raman Activ --     21.0207                25.8651                71.5871

                     22                     23                     24
                      A                      A                      A
 Frequencies --   1272.9666              1293.8206              1327.6272
 Red. masses --      2.7607                 4.5306                 2.2211
 Frc consts  --      2.6358                 4.4684                 2.3066
 IR Inten    --      5.3439                48.9370                 0.8609
 Raman Activ --      0.3003               127.3719                 6.9493

                     25                     26                     27
                      A                      A                      A
 Frequencies --   1403.1435              1466.1026              1503.4120
 Red. masses --      4.9882                 2.8153                 2.9657
 Frc consts  --      5.7863                 3.5654                 3.9494
 IR Inten    --     35.5293                 2.8459                 1.9624
 Raman Activ --    179.5118                57.8593                11.8017

                     28                     29                     30
                      A                      A                      A
 Frequencies --   1594.8450              1633.7887              3154.7354
 Red. masses --      6.5586                 6.6055                 1.0849
 Frc consts  --      9.8287                10.3884                 6.3616
 IR Inten    --      0.0004                 2.8435                 0.2979
 Raman Activ --    148.7448                 0.6890                80.4995

                     31                     32                     33
                      A                      A                      A
 Frequencies --   3162.7310              3172.3202              3181.9939
 Red. masses --      1.0878                 1.0940                 1.0969
 Frc consts  --      6.4108                 6.4865                 6.5436
 IR Inten    --      6.5042                69.1715                41.3904
 Raman Activ --    335.0537                92.2715               726.5502

 - Thermochemistry -
 -------------------
 Temperature   298.150 Kelvin.  Pressure   1.00000 Atm.
 Thermochemistry will use frequencies scaled by 0.9670.

 Molecular mass:   118.04052 amu.
 Principal axes and moments of inertia in atomic units:
                           1         2         3
     Eigenvalues --   442.901991056.009431498.91142
           X            0.99998  -0.00560   0.00000
           Y            0.00560   0.99998   0.00000
           Z           -0.00000  -0.00000   1.00000
 This molecule is an asymmetric top.
 Rotational symmetry number  1.
 Warning -- assumption of classical behavior for rotation
           may cause significant error
 Rotational temperatures (Kelvin)      0.19556     0.08202     0.05778
 Rotational constants (GHZ):           4.07481     1.70902     1.20403
 Zero-point vibrational energy     234498.9 (Joules/Mol)
                                   56.04658 (Kcal/Mol)
 Warning -- explicit consideration of   7 degrees of freedom as
           vibrations may cause significant error
 Vibrational temperatures:    303.98   364.84   584.17   601.35   765.03
          (Kelvin)            823.22   886.71   977.31  1047.77  1050.86
                             1102.89  1180.93  1271.80  1316.70  1359.12
                             1384.82  1420.60  1515.73  1586.99  1605.95
                             1632.54  1771.07  1800.09  1847.12  1952.19
                             2039.78  2091.69  2218.90  2273.09  4389.17
                             4400.30  4413.64  4427.10

 Zero-point correction=                           0.089316 (Hartree/Particle)
 Thermal correction to Energy=                    0.095188
 Thermal correction to Enthalpy=                  0.096132
 Thermal correction to Gibbs Free Energy=         0.059231
 Sum of electronic and zero-point Energies=           -395.446581
 Sum of electronic and thermal Energies=              -395.440709
 Sum of electronic and thermal Enthalpies=            -395.439765
 Sum of electronic and thermal Free Energies=         -395.476666

                     E (Thermal)             CV                S
                      KCal/Mol        Cal/Mol-Kelvin    Cal/Mol-Kelvin
 Total                   59.731             23.762             77.666
 Electronic               0.000              0.000              0.000
 Translational            0.889              2.981             40.212
 Rotational               0.889              2.981             28.041
 Vibrational             57.954             17.800              9.413
 Vibration     1          0.643              1.824              2.033
 Vibration     2          0.665              1.757              1.706
 Vibration     3          0.771              1.457              0.941
 Vibration     4          0.781              1.431              0.899
 Vibration     5          0.887              1.180              0.583
 Vibration     6          0.928              1.091              0.500
 Vibration     7          0.976              0.997              0.422

 Optimization completed.
    -- Stationary point found.
 Normal termination of Gaussian 16 at Fri Jun  2 11:38:17 2023.
