 Gaussian 16, Revision C.01,
 Gaussian 16:  ES64L-G16RevC.01  3-Jul-2019

 ----------------------------------------------------------------------
 #p freq=raman scale=0.967 pop=(nbo,full,hirshfeld) guess=read geom=all
 check b3lyp/6-311+G(d,p) int=grid=ultrafine EmpiricalDispersion=GD3BJ
 SCRF=(Solvent=ethanol) scf=(xqc,intrep,maxconventionalcycle=350) nosym
 m
 ----------------------------------------------------------------------

 Structure from the checkpoint file:  "/scratch1/svicchi/G09-659721.pbs02/02-freq/3ethyl45dimethylthiazolium-CO2_binding-site_index-1-freq.chk"
 -------------------------------------------------------
 3ethyl45dimethylthiazolium-CO2_binding-site_index-1.gjf
 -------------------------------------------------------
 Charge =  0 Multiplicity = 1

                          Input orientation:
 ---------------------------------------------------------------------
 Center     Atomic      Atomic             Coordinates (Angstroms)
 Number     Number       Type             X           Y           Z
 ---------------------------------------------------------------------
      1          7           0       -0.116137    0.061757    0.052980
      2          6           0        1.213147   -0.000925    0.126830
      3          6           0       -0.632795    0.075883   -1.247767
      4          6           0        0.352684    0.025956   -2.190146
      5         16           0        1.912775   -0.045633   -1.426785
      6          6           0       -1.005714    0.042211    1.243878
      7          6           0       -1.357839   -1.386185    1.641942
      8          1           0       -2.030986   -1.359706    2.501104
      9          1           0       -1.856265   -1.923750    0.833064
     10          1           0       -0.457955   -1.933191    1.926603
     11          1           0       -1.889120    0.620831    0.984991
     12          1           0       -0.465673    0.540692    2.041061
     13          6           0        0.220539    0.056425   -3.679563
     14          1           0        1.057788   -0.452466   -4.158278
     15          1           0        0.197833    1.086116   -4.046315
     16          6           0       -2.101965    0.169934   -1.493779
     17          1           0       -2.299871    0.091648   -2.560877
     18          1           0       -2.499871    1.128857   -1.151466
     19          1           0       -2.650890   -0.626833   -0.988711
     20          1           0       -0.698422   -0.437404   -3.996034
     21          6           0        2.139739   -0.031999    1.361056
     22          8           0        1.608395    0.097461    2.477981
     23          8           0        3.338301   -0.179810    1.045628
 ---------------------------------------------------------------------

 SCF Done:  E(RB3LYP) =  -915.106474507     A.U. after    1 cycles

 Alpha  occ. eigenvalues --  -88.91874 -19.08660 -19.08521 -14.42844 -10.29134
 Alpha  occ. eigenvalues --  -10.28046 -10.25317 -10.24076 -10.22767 -10.19380
 Alpha  occ. eigenvalues --  -10.19277 -10.17621  -8.00475  -5.96736  -5.96342
 Alpha  occ. eigenvalues --   -5.96132  -1.06186  -1.03938  -0.97151  -0.87691
 Alpha  occ. eigenvalues --   -0.82829  -0.78396  -0.74638  -0.71462  -0.67412
 Alpha  occ. eigenvalues --   -0.62676  -0.60417  -0.55275  -0.51369  -0.49602
 Alpha  occ. eigenvalues --   -0.47220  -0.46500  -0.45547  -0.44536  -0.43788
 Alpha  occ. eigenvalues --   -0.43549  -0.42734  -0.42147  -0.41779  -0.40684
 Alpha  occ. eigenvalues --   -0.39336  -0.38556  -0.38015  -0.37073  -0.31744
 Alpha  occ. eigenvalues --   -0.27764  -0.27494  -0.27067  -0.26217
 Alpha virt. eigenvalues --   -0.08665  -0.01185  -0.00730  -0.00213   0.01561
 Alpha virt. eigenvalues --    0.01852   0.02427   0.03639   0.04105   0.04430
 Alpha virt. eigenvalues --    0.04831   0.05504   0.06166   0.06576   0.07063

 Mulliken charges:
               1
     1  N    0.444241
     2  C   -0.109751
     3  C   -1.038825
     4  C    1.118874
     5  S   -0.034224
     6  C   -0.293605
     7  C   -0.374553
     8  H    0.166867
     9  H    0.145239
    10  H    0.164446
    11  H    0.181033
    12  H    0.209508
    13  C   -0.253383
    14  H    0.168475
    15  H    0.197874
    16  C   -0.754897
    17  H    0.170083
    18  H    0.197209
    19  H    0.175932
    20  H    0.171097
    21  C    0.314827
    22  O   -0.485988
    23  O   -0.480478
 Sum of Mulliken charges =  -0.00000

 Dipole moment (field-independent basis, Debye):
    X=            -11.6859    Y=              0.2413    Z=            -10.2404  Tot=             15.5398
 Quadrupole moment (field-independent basis, Debye-Ang):
   XX=           -101.7622   YY=            -77.5939   ZZ=            -78.3569
   XY=              1.1135   XZ=            -17.9893   YZ=             -1.1153

  Exact polarizability:     191.996      -2.122     108.657       0.443      -3.119     200.085
 Approx polarizability:     224.717      -5.611     125.974      -8.517       0.686     227.945

 Summary of Natural Population Analysis:

                                       Natural Population
                Natural  -----------------------------------------------
    Atom  No    Charge         Core      Valence    Rydberg      Total
 -----------------------------------------------------------------------
      N    1   -0.35346      1.99912     5.32981    0.02453     7.35346
      C    2    0.02952      1.99915     3.93956    0.03177     5.97048
      C    3    0.17411      1.99884     3.80868    0.01837     5.82589
      C    4   -0.18550      1.99888     4.16664    0.01997     6.18550
      S    5    0.58478      9.99872     5.37510    0.04140    15.41522
      C    6   -0.18403      1.99925     4.16847    0.01631     6.18403
      C    7   -0.58620      1.99935     4.57892    0.00793     6.58620
      H    8    0.22121      0.00000     0.77769    0.00110     0.77879
      H    9    0.20487      0.00000     0.79367    0.00146     0.79513
      H   10    0.21468      0.00000     0.78359    0.00173     0.78532
      H   11    0.21572      0.00000     0.78270    0.00158     0.78428
      H   12    0.25330      0.00000     0.74467    0.00203     0.74670
      C   13   -0.60923      1.99925     4.59727    0.01270     6.60923
      H   14    0.23130      0.00000     0.76750    0.00120     0.76870
      H   15    0.23536      0.00000     0.76349    0.00116     0.76464
      C   16   -0.61554      1.99927     4.60731    0.00896     6.61554
      H   17    0.23731      0.00000     0.76151    0.00119     0.76269
      H   18    0.23534      0.00000     0.76325    0.00141     0.76466
      H   19    0.23218      0.00000     0.76629    0.00153     0.76782
      H   20    0.23196      0.00000     0.76681    0.00122     0.76804
      C   21    0.73239      1.99939     3.20877    0.05945     5.26761
      O   22   -0.74408      1.99976     6.73050    0.01381     8.74408
      O   23   -0.75599      1.99977     6.74250    0.01372     8.75599
 =======================================================================
   * Total *    0.00000     31.99076    65.72471    0.28453    98.00000

                      1                      2                      3
                      A                      A                      A
 Frequencies --     25.8277                50.7748                75.5614
 Red. masses --     10.4683                 1.0356                 3.2993
 Frc consts  --      0.0041                 0.0016                 0.0111
 IR Inten    --      0.4376                 0.7868                 5.2156
 Raman Activ --      2.5484                 2.8063                 0.9184

                      4                      5                      6
                      A                      A                      A
 Frequencies --     91.9021               118.1624               158.9876
 Red. masses --      3.0717                 4.6136                 1.0501
 Frc consts  --      0.0153                 0.0380                 0.0156
 IR Inten    --      1.1239                 3.0602                 0.5673
 Raman Activ --      1.1963                 0.3632                 0.4244

                      7                      8                      9
                      A                      A                      A
 Frequencies --    180.6633               196.6178               206.0831
 Red. masses --      5.9495                 3.3226                 1.0895
 Frc consts  --      0.1144                 0.0757                 0.0273
 IR Inten    --      7.0751                 0.4291                 1.1139
 Raman Activ --      0.2345                 1.2986                 0.2183

                     10                     11                     12
                      A                      A                      A
 Frequencies --    291.1270               292.5468               335.1944
 Red. masses --      3.5686                 2.8710                 8.1965
 Frc consts  --      0.1782                 0.1448                 0.5426
 IR Inten    --     10.1782                 6.3948                13.6128
 Raman Activ --      2.7989                 2.8111                 1.3887

                     13                     14                     15
                      A                      A                      A
 Frequencies --    359.5209               371.3687               384.7190
 Red. masses --      4.0356                 2.6860                 4.7083
 Frc consts  --      0.3073                 0.2183                 0.4106
 IR Inten    --      0.3530                10.4802                 0.5093
 Raman Activ --      2.0017                 0.7031                 5.4030

                     16                     17                     18
                      A                      A                      A
 Frequencies --    496.7840               523.9820               537.7545
 Red. masses --      6.4156                 5.7591                 5.3483
 Frc consts  --      0.9329                 0.9316                 0.9112
 IR Inten    --      3.0042                 2.6886                 0.1523
 Raman Activ --      2.0092                 7.1204                12.5330

                     19                     20                     21
                      A                      A                      A
 Frequencies --    576.0879               663.8489               673.0103
 Red. masses --      4.6698                 4.7197                 3.7834
 Frc consts  --      0.9131                 1.2255                 1.0097
 IR Inten    --      5.5546                 6.4572                 7.7938
 Raman Activ --     29.2134                 2.5552                 5.1034

                     22                     23                     24
                      A                      A                      A
 Frequencies --    774.3120               781.3952               800.9699
 Red. masses --      7.3722                11.8183                 1.2543
 Frc consts  --      2.6042                 4.2516                 0.4741
 IR Inten    --    170.5840                19.0917                20.2407
 Raman Activ --      4.6757                 3.3596                 4.1627

                     25                     26                     27
                      A                      A                      A
 Frequencies --    868.0127               934.5183               991.8304
 Red. masses --      2.8741                 2.5397                 1.7936
 Frc consts  --      1.2759                 1.3068                 1.0396
 IR Inten    --     48.7054                 2.1342                13.5527
 Raman Activ --      4.0371                13.3348                12.2637

                     28                     29                     30
                      A                      A                      A
 Frequencies --   1041.1923              1046.6343              1066.3470
 Red. masses --      1.6116                 2.5143                 1.5522
 Frc consts  --      1.0294                 1.6228                 1.0399
 IR Inten    --      7.8512                 1.6728                 1.6866
 Raman Activ --      5.3811                23.0327                 1.3501

                     31                     32                     33
                      A                      A                      A
 Frequencies --   1107.1753              1113.0365              1145.1890
 Red. masses --      2.1116                 1.9523                 2.1731
 Frc consts  --      1.5251                 1.4250                 1.6791
 IR Inten    --      4.6958                 9.3055                11.8413
 Raman Activ --     15.0636                 8.8524                28.5479

                     34                     35                     36
                      A                      A                      A
 Frequencies --   1160.0692              1244.2419              1299.9400
 Red. masses --      2.9538                 3.8061                 1.9684
 Frc consts  --      2.3421                 3.4717                 1.9598
 IR Inten    --     26.6793                25.0210                91.6466
 Raman Activ --     23.7082                32.8756               108.5644

                     37                     38                     39
                      A                      A                      A
 Frequencies --   1314.3537              1352.2228              1405.2039
 Red. masses --      8.5788                 2.1242                 1.3416
 Frc consts  --      8.7318                 2.2885                 1.5608
 IR Inten    --    528.4859                76.0151                 2.2095
 Raman Activ --    209.3933                31.4254                13.7250

                     40                     41                     42
                      A                      A                      A
 Frequencies --   1411.3443              1416.8039              1426.1194
 Red. masses --      1.2593                 1.2981                 1.2769
 Frc consts  --      1.4779                 1.5352                 1.5301
 IR Inten    --      6.1836                 1.3175                 4.3883
 Raman Activ --      9.9571                53.2468                25.2521

                     43                     44                     45
                      A                      A                      A
 Frequencies --   1455.3052              1472.3515              1475.3299
 Red. masses --      1.6534                 1.0906                 1.1005
 Frc consts  --      2.0632                 1.3930                 1.4113
 IR Inten    --     20.9595                33.7514                10.8945
 Raman Activ --    133.9206                46.2307                46.8840

                     46                     47                     48
                      A                      A                      A
 Frequencies --   1477.8127              1482.7848              1488.4064
 Red. masses --      1.0556                 1.1144                 1.2750
 Frc consts  --      1.3583                 1.4436                 1.6642
 IR Inten    --     12.9500                19.6239                42.5511
 Raman Activ --     16.3519                41.3465                81.8976

                     49                     50                     51
                      A                      A                      A
 Frequencies --   1491.8169              1504.1970              1628.6679
 Red. masses --      1.0588                 1.2460                 6.6468
 Frc consts  --      1.3884                 1.6610                10.3878
 IR Inten    --     24.9433                55.0495                53.4670
 Raman Activ --     24.6277                51.3156               107.9786

                     52                     53                     54
                      A                      A                      A
 Frequencies --   1677.2811              3042.8039              3043.2844
 Red. masses --     11.4273                 1.0390                 1.0353
 Frc consts  --     18.9411                 5.6676                 5.6493
 IR Inten    --    915.9553                17.8003                16.8586
 Raman Activ --     62.8792               440.6068               112.5371

                     55                     56                     57
                      A                      A                      A
 Frequencies --   3045.5771              3101.6376              3104.1719
 Red. masses --      1.0404                 1.0992                 1.0975
 Frc consts  --      5.6858                 6.2304                 6.2309
 IR Inten    --     19.4745                10.2237                 8.4120
 Raman Activ --    769.1002               168.5518               183.4845

                     58                     59                     60
                      A                      A                      A
 Frequencies --   3109.7967              3113.6229              3125.1494
 Red. masses --      1.0915                 1.0913                 1.0840
 Frc consts  --      6.2190                 6.2336                 6.2376
 IR Inten    --     22.8966                10.2346                43.4317
 Raman Activ --    156.4771               187.3985               209.8354

                     61                     62                     63
                      A                      A                      A
 Frequencies --   3126.7068              3145.5347              3180.5289
 Red. masses --      1.1022                 1.0979                 1.1056
 Frc consts  --      6.3487                 6.4006                 6.5895
 IR Inten    --     15.6003                 7.7843                 2.6707
 Raman Activ --    117.9899               131.5089                58.4211

 - Thermochemistry -
 -------------------
 Temperature   298.150 Kelvin.  Pressure   1.00000 Atm.
 Thermochemistry will use frequencies scaled by 0.9670.

 Molecular mass:   185.05105 amu.
 Principal axes and moments of inertia in atomic units:
                           1         2         3
     Eigenvalues --  1641.950582348.811333773.81913
           X            0.45785   0.88653  -0.06657
           Y           -0.05059   0.10074   0.99363
           Z            0.88759  -0.45156   0.09097
 This molecule is an asymmetric top.
 Rotational symmetry number  1.
 Warning -- assumption of classical behavior for rotation
           may cause significant error
 Rotational temperatures (Kelvin)      0.05275     0.03688     0.02295
 Rotational constants (GHZ):           1.09914     0.76836     0.47823
 Zero-point vibrational energy     460426.3 (Joules/Mol)
                                  110.04453 (Kcal/Mol)
 Warning -- explicit consideration of  19 degrees of freedom as
           vibrations may cause significant error
 Vibrational temperatures:     35.93    70.64   105.13   127.86   164.40
          (Kelvin)            221.20   251.36   273.55   286.72   405.04
                              407.02   466.36   500.20   516.68   535.26
                              691.17   729.01   748.18   801.51   923.61
                              936.36  1077.30  1087.15  1114.39  1207.66
                             1300.19  1379.93  1448.61  1456.18  1483.61
                             1540.41  1548.56  1593.30  1614.00  1731.11
                             1808.60  1828.66  1881.34  1955.06  1963.60
                             1971.20  1984.16  2024.76  2048.48  2052.62
                             2056.08  2062.99  2070.82  2075.56  2092.79
                             2265.96  2333.60  4233.44  4234.11  4237.30
                             4315.30  4318.83  4326.65  4331.98  4348.01
                             4350.18  4376.37  4425.06

 Zero-point correction=                           0.175367 (Hartree/Particle)
 Thermal correction to Energy=                    0.188797
 Thermal correction to Enthalpy=                  0.189741
 Thermal correction to Gibbs Free Energy=         0.134173
 Sum of electronic and zero-point Energies=           -914.931107
 Sum of electronic and thermal Energies=              -914.917678
 Sum of electronic and thermal Enthalpies=            -914.916734
 Sum of electronic and thermal Free Energies=         -914.972302

                     E (Thermal)             CV                S
                      KCal/Mol        Cal/Mol-Kelvin    Cal/Mol-Kelvin
 Total                  118.472             47.595            116.953
 Electronic               0.000              0.000              0.000
 Translational            0.889              2.981             41.553
 Rotational               0.889              2.981             31.054
 Vibrational            116.694             41.633             44.346
 Vibration     1          0.593              1.985              6.193
 Vibration     2          0.595              1.978              4.853
 Vibration     3          0.599              1.967              4.069
 Vibration     4          0.602              1.957              3.685
 Vibration     5          0.607              1.938              3.195
 Vibration     6          0.619              1.899              2.625
 Vibration     7          0.627              1.874              2.384
 Vibration     8          0.633              1.853              2.227
 Vibration     9          0.637              1.841              2.140
 Vibration    10          0.681              1.708              1.524
 Vibration    11          0.682              1.705              1.516
 Vibration    12          0.709              1.627              1.289
 Vibration    13          0.725              1.580              1.177
 Vibration    14          0.734              1.557              1.126
 Vibration    15          0.744              1.530              1.071
 Vibration    16          0.837              1.294              0.709
 Vibration    17          0.862              1.235              0.642
 Vibration    18          0.875              1.206              0.610
 Vibration    19          0.913              1.124              0.530

 Normal termination of Gaussian 16 at Fri Jun  2 17:06:46 2023.
