 Gaussian 16, Revision C.01,
 Gaussian 16:  ES64L-G16RevC.01  3-Jul-2019

 ----------------------------------------------------------------------
 #p freq=raman scale=0.967 pop=(nbo,full,hirshfeld) guess=read geom=all
 check b3lyp/6-311+G(d,p) int=grid=ultrafine EmpiricalDispersion=GD3BJ
 SCRF=(Solvent=ethanol) scf=(xqc,intrep,maxconventionalcycle=350) nosym
 m
 ----------------------------------------------------------------------

 Structure from the checkpoint file:  "/scratch1/svicchi/G09-659832.pbs02/02-freq/indazolide-isolated-freq.chk"
 -----------------------
 indazolide-isolated.gjf
 -----------------------
 Charge = -1 Multiplicity = 1

                          Input orientation:
 ---------------------------------------------------------------------
 Center     Atomic      Atomic             Coordinates (Angstroms)
 Number     Number       Type             X           Y           Z
 ---------------------------------------------------------------------
      1          7           0       -1.530458   -1.112316    0.184158
      2          7           0       -2.333374   -0.009854    0.240747
      3          6           0       -0.248635   -0.668663    0.085748
      4          6           0       -0.219392    0.765740    0.079075
      5          6           0        0.954696   -1.403975   -0.002780
      6          6           0        1.010923    1.449384   -0.015719
      7          6           0       -1.588200    1.106508    0.181169
      8          6           0        2.147129   -0.709868   -0.095287
      9          6           0        2.178225    0.711052   -0.101928
     10          1           0        0.938988   -2.489359    0.001840
     11          1           0        1.046400    2.534629   -0.021493
     12          1           0       -2.049636    2.084803    0.212587
     13          1           0        3.082138   -1.256089   -0.164357
     14          1           0        3.134633    1.217486   -0.175568
 ---------------------------------------------------------------------

 SCF Done:  E(RB3LYP) =  -379.490058187     A.U. after    1 cycles

 Alpha  occ. eigenvalues --  -14.29586 -14.28038 -10.16316 -10.16172 -10.15814
 Alpha  occ. eigenvalues --  -10.15753 -10.15548 -10.15497 -10.14644  -0.97368
 Alpha  occ. eigenvalues --   -0.82803  -0.76159  -0.72506  -0.70687  -0.60155
 Alpha  occ. eigenvalues --   -0.56898  -0.54542  -0.48125  -0.46004  -0.44136
 Alpha  occ. eigenvalues --   -0.41951  -0.39755  -0.39230  -0.35234  -0.32674
 Alpha  occ. eigenvalues --   -0.32536  -0.27946  -0.26608  -0.22667  -0.21642
 Alpha  occ. eigenvalues --   -0.18440
 Alpha virt. eigenvalues --   -0.01395   0.01342   0.02741   0.03198   0.03359
 Alpha virt. eigenvalues --    0.04247   0.04889   0.05172   0.06315   0.07310
 Alpha virt. eigenvalues --    0.08106   0.08225   0.08729   0.09320   0.10583

 Mulliken charges:
               1
     1  N   -0.353674
     2  N   -0.224137
     3  C   -0.494999
     4  C    1.325979
     5  C    0.053984
     6  C   -1.277509
     7  C   -0.214645
     8  C   -0.447350
     9  C    0.024214
    10  H    0.120800
    11  H    0.123860
    12  H    0.108869
    13  H    0.128109
    14  H    0.126497
 Sum of Mulliken charges =  -1.00000

 Dipole moment (field-independent basis, Debye):
    X=              7.3116    Y=              3.1344    Z=             -0.8733  Tot=              8.0029
 Quadrupole moment (field-independent basis, Debye-Ang):
   XX=            -76.2840   YY=            -57.4176   ZZ=            -60.1548
   XY=             -6.7379   XZ=              1.7283   YZ=              0.7049

  Exact polarizability:     201.024      -0.198     155.272      -8.891      -0.203      84.189
 Approx polarizability:     233.523       1.776     188.833     -10.668      -0.435      93.208

 Summary of Natural Population Analysis:

                                       Natural Population
                Natural  -----------------------------------------------
    Atom  No    Charge         Core      Valence    Rydberg      Total
 -----------------------------------------------------------------------
      N    1   -0.46128      1.99943     5.42302    0.03883     7.46128
      N    2   -0.37961      1.99950     5.34289    0.03721     7.37961
      C    3    0.08268      1.99901     3.88439    0.03393     5.91732
      C    4   -0.17890      1.99898     4.16053    0.01939     6.17890
      C    5   -0.23447      1.99906     4.21671    0.01870     6.23447
      C    6   -0.20689      1.99909     4.18999    0.01781     6.20689
      C    7   -0.10684      1.99918     4.07626    0.03140     6.10684
      C    8   -0.24935      1.99919     4.23077    0.01940     6.24935
      C    9   -0.26782      1.99918     4.24853    0.02011     6.26782
      H   10    0.20356      0.00000     0.79292    0.00352     0.79644
      H   11    0.20334      0.00000     0.79479    0.00187     0.79666
      H   12    0.19128      0.00000     0.80705    0.00168     0.80872
      H   13    0.20210      0.00000     0.79637    0.00153     0.79790
      H   14    0.20220      0.00000     0.79629    0.00151     0.79780
 =======================================================================
   * Total *   -1.00000     17.99263    43.76050    0.24688    62.00000

                      1                      2                      3
                      A                      A                      A
 Frequencies --    215.1749               253.4955               409.7240
 Red. masses --      5.8141                 4.1952                 4.8580
 Frc consts  --      0.1586                 0.1588                 0.4805
 IR Inten    --      0.0043                 6.1180                 8.4226
 Raman Activ --      0.4615                 0.4269                 3.3013

                      4                      5                      6
                      A                      A                      A
 Frequencies --    433.8212               549.2294               589.6193
 Red. masses --      2.7406                 7.5297                 3.5611
 Frc consts  --      0.3039                 1.3382                 0.7294
 IR Inten    --     13.9337                 4.5986                 0.8998
 Raman Activ --      1.4380                12.3414                 1.3518

                      7                      8                      9
                      A                      A                      A
 Frequencies --    625.0114               671.3227               736.5307
 Red. masses --      6.6527                 6.3446                 1.4005
 Frc consts  --      1.5312                 1.6847                 0.4476
 IR Inten    --      1.4187                18.3319                41.6326
 Raman Activ --     24.1603                 2.3563                18.3810

                     10                     11                     12
                      A                      A                      A
 Frequencies --    757.6278               777.0374               783.6616
 Red. masses --      2.5893                 5.2689                 1.4517
 Frc consts  --      0.8757                 1.8743                 0.5253
 IR Inten    --     67.6559                11.7693                61.5672
 Raman Activ --      5.7807                82.9652                 7.6706

                     13                     14                     15
                      A                      A                      A
 Frequencies --    843.3289               906.3613               941.1196
 Red. masses --      1.5417                 5.6649                 1.3691
 Frc consts  --      0.6460                 2.7419                 0.7144
 IR Inten    --      0.0518                 7.5849                 2.2926
 Raman Activ --      8.7449                 0.6551                 8.7579

                     16                     17                     18
                      A                      A                      A
 Frequencies --    956.8232               968.9286              1014.5375
 Red. masses --      5.0996                 1.2456                 2.3068
 Frc consts  --      2.7507                 0.6890                 1.3989
 IR Inten    --     18.8007                 0.0198                43.4504
 Raman Activ --     12.5259                 2.2952               104.0938

                     19                     20                     21
                      A                      A                      A
 Frequencies --   1058.3189              1132.6804              1155.7525
 Red. masses --      5.1218                 1.4946                 1.1617
 Frc consts  --      3.3799                 1.1297                 0.9143
 IR Inten    --     60.3140                 7.2927                 8.4542
 Raman Activ --     33.7636                18.0117                 8.4791

                     22                     23                     24
                      A                      A                      A
 Frequencies --   1188.9156              1258.8486              1301.8700
 Red. masses --      1.8135                 2.3548                 4.1460
 Frc consts  --      1.5103                 2.1986                 4.1401
 IR Inten    --     29.6716                 0.1351                75.8374
 Raman Activ --     46.9068                 5.9017                30.1257

                     25                     26                     27
                      A                      A                      A
 Frequencies --   1317.7841              1376.4660              1398.8670
 Red. masses --      3.1318                 3.2124                 2.9878
 Frc consts  --      3.2043                 3.5860                 3.4447
 IR Inten    --     10.4518                26.7229                54.8294
 Raman Activ --     67.7952               213.2716               107.7688

                     28                     29                     30
                      A                      A                      A
 Frequencies --   1475.8885              1509.4742              1576.9070
 Red. masses --      2.9658                 3.1897                 5.6948
 Frc consts  --      3.8063                 4.2821                 8.3433
 IR Inten    --      3.7289                 6.8508                 5.0163
 Raman Activ --    131.6463                45.7744               114.0783

                     31                     32                     33
                      A                      A                      A
 Frequencies --   1630.5195              3143.5759              3150.1758
 Red. masses --      6.3303                 1.0850                 1.0871
 Frc consts  --      9.9158                 6.3173                 6.3558
 IR Inten    --     11.0340                10.1920                 6.7941
 Raman Activ --      3.1984                86.8415               348.9998

                     34                     35                     36
                      A                      A                      A
 Frequencies --   3162.3658              3174.5151              3195.5709
 Red. masses --      1.0929                 1.0965                 1.0945
 Frc consts  --      6.4394                 6.5103                 6.5853
 IR Inten    --     82.4153                56.5183                35.7661
 Raman Activ --    146.3437               695.6528               322.4170

 - Thermochemistry -
 -------------------
 Temperature   298.150 Kelvin.  Pressure   1.00000 Atm.
 Thermochemistry will use frequencies scaled by 0.9670.

 Molecular mass:   117.04527 amu.
 Principal axes and moments of inertia in atomic units:
                           1         2         3
     Eigenvalues --   448.391321083.609811532.00110
           X            0.99715  -0.00470   0.07528
           Y            0.00448   0.99999   0.00312
           Z           -0.07529  -0.00277   0.99716
 This molecule is an asymmetric top.
 Rotational symmetry number  1.
 Warning -- assumption of classical behavior for rotation
           may cause significant error
 Rotational temperatures (Kelvin)      0.19317     0.07993     0.05654
 Rotational constants (GHZ):           4.02492     1.66549     1.17803
 Zero-point vibrational energy     263989.9 (Joules/Mol)
                                   63.09511 (Kcal/Mol)
 Warning -- explicit consideration of   7 degrees of freedom as
           vibrations may cause significant error
 Vibrational temperatures:    299.37   352.69   570.05   603.57   764.14
          (Kelvin)            820.34   869.58   934.01  1024.73  1054.09
                             1081.09  1090.31  1173.32  1261.02  1309.38
                             1331.23  1348.07  1411.52  1472.44  1575.90
                             1608.00  1654.14  1751.43  1811.29  1833.43
                             1915.07  1946.24  2053.40  2100.13  2193.95
                             2268.54  4373.65  4382.83  4399.79  4416.69
                             4445.99

 Zero-point correction=                           0.100548 (Hartree/Particle)
 Thermal correction to Energy=                    0.106595
 Thermal correction to Enthalpy=                  0.107540
 Thermal correction to Gibbs Free Energy=         0.070371
 Sum of electronic and zero-point Energies=           -379.389510
 Sum of electronic and thermal Energies=              -379.383463
 Sum of electronic and thermal Enthalpies=            -379.382519
 Sum of electronic and thermal Free Energies=         -379.419687

                     E (Thermal)             CV                S
                      KCal/Mol        Cal/Mol-Kelvin    Cal/Mol-Kelvin
 Total                   66.890             24.921             78.228
 Electronic               0.000              0.000              0.000
 Translational            0.889              2.981             40.187
 Rotational               0.889              2.981             28.100
 Vibrational             65.112             18.960              9.940
 Vibration     1          0.641              1.828              2.061
 Vibration     2          0.660              1.771              1.765
 Vibration     3          0.763              1.478              0.977
 Vibration     4          0.782              1.428              0.894
 Vibration     5          0.886              1.181              0.585
 Vibration     6          0.926              1.096              0.504
 Vibration     7          0.963              1.022              0.442

 Optimization completed.
    -- Stationary point found.
 Normal termination of Gaussian 16 at Fri Jun  2 11:46:57 2023.
