 Gaussian 16, Revision C.02,
 Gaussian 16:  ES64L-G16RevC.02  7-Dec-2021

 ----------------------------------------------------------------------
 #p freq=raman scale=0.967 guess=read geom=allcheck b3lyp/6-311+G(d,p)
 int=grid=ultrafine EmpiricalDispersion=GD3BJ SCRF=(Solvent=ethanol) sc
 f=(xqc,intrep,maxconventionalcycle=350) nosymm
 ----------------------------------------------------------------------

 Structure from the checkpoint file:  "/scratch1/svicchi/G09-1868848.pbs02/02-freq/IMIDF-CO2_binding-site_index-1-freq.chk"
 ------------------------------
 IMIDF-CO2_binding-site_index-1
 ------------------------------
 Charge = -1 Multiplicity = 1

                          Input orientation:
 ---------------------------------------------------------------------
 Center     Atomic      Atomic             Coordinates (Angstroms)
 Number     Number       Type             X           Y           Z
 ---------------------------------------------------------------------
      1          6           0       -2.143150    3.417799    0.347483
      2          7           0       -1.168185    2.480046    0.202918
      3          6           0       -1.809519    1.395150   -0.392160
      4          6           0       -3.112454    1.762332   -0.558695
      5          1           0       -1.263515    0.498726   -0.623913
      6          7           0       -3.314671    3.056506   -0.082299
      7          1           0       -3.922427    1.192996   -0.985924
      8          9           0       -1.907762    4.607970    0.889130
      9          6           0        0.298220    2.523683    0.573686
     10          8           0        0.891121    1.471695    0.304691
     11          8           0        0.668707    3.587413    1.079609
 ---------------------------------------------------------------------

 SCF Done:  E(RB3LYP) =  -513.758990667     A.U. after    1 cycles

 Alpha  occ. eigenvalues --  -24.70906 -19.07557 -19.07501 -14.36693 -14.30552
 Alpha  occ. eigenvalues --  -10.30711 -10.29825 -10.19573 -10.18989  -1.25591
 Alpha  occ. eigenvalues --   -1.06130  -1.01176  -0.96785  -0.87985  -0.74302
 Alpha  occ. eigenvalues --   -0.63212  -0.61356  -0.59763  -0.50535  -0.49223
 Alpha  occ. eigenvalues --   -0.47818  -0.46088  -0.43849  -0.43760  -0.42433
 Alpha  occ. eigenvalues --   -0.39633  -0.39270  -0.30975  -0.28805  -0.27459
 Alpha  occ. eigenvalues --   -0.26914  -0.25246  -0.23276
 Alpha virt. eigenvalues --    0.00233   0.01140   0.02735   0.03495   0.04532
 Alpha virt. eigenvalues --    0.04883   0.05506   0.06677   0.07042   0.08623
 Alpha virt. eigenvalues --    0.09305   0.09888   0.09928   0.10141   0.11551

 Mulliken charges:
               1
     1  C    0.317517
     2  N   -0.194957
     3  C   -0.128590
     4  C   -0.185608
     5  H    0.159823
     6  N   -0.312928
     7  H    0.140907
     8  F   -0.178066
     9  C    0.431886
    10  O   -0.525863
    11  O   -0.524122
 Sum of Mulliken charges =  -1.00000

 Dipole moment (field-independent basis, Debye):
    X=              0.6191    Y=            -14.9865    Z=             -3.4238  Tot=             15.3851
 Quadrupole moment (field-independent basis, Debye-Ang):
   XX=            -74.6860   YY=           -105.7638   ZZ=            -55.4211
   XY=             10.5105   XZ=             -1.4541   YZ=            -11.1923

  Exact polarizability:     108.320      -4.281      96.297      11.162      15.476      63.913
 Approx polarizability:     118.468      -6.676     116.212      11.147      20.335      72.119

                      1                      2                      3
                      A                      A                      A
 Frequencies --     49.2050               133.3300               203.7783
 Red. masses --     13.1815                 8.0703                11.3107
 Frc consts  --      0.0188                 0.0845                 0.2767
 IR Inten    --      0.1658                14.2331                 4.4118
 Raman Activ --      1.2789                 3.1629                 0.0988

                      4                      5                      6
                      A                      A                      A
 Frequencies --    312.6624               361.8923               410.3377
 Red. masses --      7.2955                 9.8729                14.2104
 Frc consts  --      0.4202                 0.7618                 1.4097
 IR Inten    --      0.0668                 7.7100                 9.9026
 Raman Activ --      2.4090                 4.5145                 5.9570

                      7                      8                      9
                      A                      A                      A
 Frequencies --    588.9007               632.7872               684.4991
 Red. masses --      7.9919                 3.7487                 3.8652
 Frc consts  --      1.6330                 0.8844                 1.0670
 IR Inten    --     10.0006                 0.0010                56.5167
 Raman Activ --      2.4297                 1.3108                 5.4598

                     10                     11                     12
                      A                      A                      A
 Frequencies --    712.3971               752.6904               754.4218
 Red. masses --     12.5899                 1.5586                13.1691
 Frc consts  --      3.7646                 0.5203                 4.4161
 IR Inten    --    138.4974                66.4185               368.2197
 Raman Activ --      9.9203                 2.0210                12.3371

                     13                     14                     15
                      A                      A                      A
 Frequencies --    790.3344               859.3015               937.1760
 Red. masses --     10.5938                 1.3447                 6.5814
 Frc consts  --      3.8987                 0.5850                 3.4057
 IR Inten    --     25.3393                 3.8478                 6.7857
 Raman Activ --      2.3469                 8.7510                 9.4265

                     16                     17                     18
                      A                      A                      A
 Frequencies --   1057.9106              1132.3632              1191.2814
 Red. masses --      1.4645                 2.9192                 7.9019
 Frc consts  --      0.9657                 2.2054                 6.6071
 IR Inten    --    139.3621                51.6837               175.6792
 Raman Activ --      9.4732                17.3266                23.6911

                     19                     20                     21
                      A                      A                      A
 Frequencies --   1197.6804              1277.4502              1340.1496
 Red. masses --      2.7438                 7.0695                 3.3368
 Frc consts  --      2.3189                 6.7971                 3.5309
 IR Inten    --    400.9456               488.4557                 2.9131
 Raman Activ --     43.1729                27.0510                16.6074

                     22                     23                     24
                      A                      A                      A
 Frequencies --   1465.6949              1527.6522              1557.7356
 Red. masses --      7.6902                 5.4258                 7.0797
 Frc consts  --      9.7336                 7.4605                10.1216
 IR Inten    --    183.7960               100.8320               177.7830
 Raman Activ --     10.6968               107.1149                 4.0322

                     25                     26                     27
                      A                      A                      A
 Frequencies --   1742.3238              3243.4916              3293.8479
 Red. masses --     12.8544                 1.0950                 1.1017
 Frc consts  --     22.9910                 6.7872                 7.0427
 IR Inten    --   1255.6412                 8.0936                 6.1193
 Raman Activ --     15.8059               181.3566               153.0259

 - Thermochemistry -
 -------------------
 Temperature   298.150 Kelvin.  Pressure   1.00000 Atm.
 Thermochemistry will use frequencies scaled by 0.9670.

 Molecular mass:   129.01003 amu.
 Principal axes and moments of inertia in atomic units:
                           1         2         3
     Eigenvalues --   622.877151091.832081714.67449
           X            0.97573   0.01734  -0.21830
           Y           -0.09804   0.92597  -0.36465
           Z            0.19582   0.37720   0.90519
 This molecule is an asymmetric top.
 Rotational symmetry number  1.
 Warning -- assumption of classical behavior for rotation
           may cause significant error
 Rotational temperatures (Kelvin)      0.13905     0.07933     0.05051
 Rotational constants (GHZ):           2.89743     1.65295     1.05253
 Zero-point vibrational energy     163172.6 (Joules/Mol)
                                   38.99918 (Kcal/Mol)
 Warning -- explicit consideration of   8 degrees of freedom as
           vibrations may cause significant error
 Vibrational temperatures:     68.46   185.50   283.52   435.01   503.50
          (Kelvin)            570.90   819.34   880.40   952.34   991.16
                             1047.22  1049.63  1099.59  1195.54  1303.89
                             1471.87  1575.45  1657.43  1666.33  1777.31
                             1864.55  2039.22  2125.42  2167.27  2424.09
                             4512.66  4582.72

 Zero-point correction=                           0.062149 (Hartree/Particle)
 Thermal correction to Energy=                    0.069296
 Thermal correction to Enthalpy=                  0.070240
 Thermal correction to Gibbs Free Energy=         0.029531
 Sum of electronic and zero-point Energies=           -513.696842
 Sum of electronic and thermal Energies=              -513.689695
 Sum of electronic and thermal Enthalpies=            -513.688751
 Sum of electronic and thermal Free Energies=         -513.729460

                     E (Thermal)             CV                S
                      KCal/Mol        Cal/Mol-Kelvin    Cal/Mol-Kelvin
 Total                   43.484             25.378             85.679
 Electronic               0.000              0.000              0.000
 Translational            0.889              2.981             40.477
 Rotational               0.889              2.981             28.546
 Vibrational             41.706             19.417             16.656
 Vibration     1          0.595              1.978              4.915
 Vibration     2          0.611              1.924              2.962
 Vibration     3          0.636              1.844              2.160
 Vibration     4          0.694              1.669              1.404
 Vibration     5          0.727              1.575              1.166
 Vibration     6          0.763              1.477              0.974
 Vibration     7          0.926              1.097              0.505
 Vibration     8          0.971              1.007              0.430

 Normal termination of Gaussian 16 at Thu Jan 11 13:15:41 2024.
