 Gaussian 16, Revision C.01,
 Gaussian 16:  ES64L-G16RevC.01  3-Jul-2019

 ----------------------------------------------------------------------
 #p freq=raman scale=0.967 pop=(nbo,full,hirshfeld) guess=read geom=all
 check b3lyp/6-311+G(d,p) int=grid=ultrafine EmpiricalDispersion=GD3BJ
 SCRF=(Solvent=ethanol) scf=(xqc,intrep,maxconventionalcycle=350) nosym
 m
 ----------------------------------------------------------------------

 Structure from the checkpoint file:  "/scratch1/svicchi/G09-659758.pbs02/02-freq/123triz-H_dissociation-site_index-3-freq.chk"
 ---------------------------------------
 123triz-H_dissociation-site_index-3.gjf
 ---------------------------------------
 Charge =  0 Multiplicity = 1

                          Input orientation:
 ---------------------------------------------------------------------
 Center     Atomic      Atomic             Coordinates (Angstroms)
 Number     Number       Type             X           Y           Z
 ---------------------------------------------------------------------
      1          6           0       -3.658778    0.604195    0.000000
      2          6           0       -3.736926   -0.797771   -0.000000
      3          7           0       -2.370494    0.956689    0.000000
      4          7           0       -1.731898   -0.206357   -0.000000
      5          7           0       -2.495764   -1.291266   -0.000000
      6          1           0       -4.442256    1.343869   -0.000000
      7          1           0       -4.597766   -1.445750    0.000000
      8          1           0       -0.723315   -0.262386    0.000000
 ---------------------------------------------------------------------

 SCF Done:  E(RB3LYP) =  -242.317711631     A.U. after    1 cycles

 Alpha  occ. eigenvalues --  -14.43328 -14.36578 -14.36574 -10.21283 -10.21233
 Alpha  occ. eigenvalues --   -1.12356  -0.90986  -0.84043  -0.64926  -0.64277
 Alpha  occ. eigenvalues --   -0.55834  -0.48819  -0.46824  -0.46089  -0.34828
 Alpha  occ. eigenvalues --   -0.31914  -0.31053  -0.28999
 Alpha virt. eigenvalues --   -0.02905   0.01130   0.02689   0.03429   0.03679
 Alpha virt. eigenvalues --    0.05435   0.05827   0.06786   0.08068   0.10387
 Alpha virt. eigenvalues --    0.12437   0.13288   0.15278   0.15840   0.18003

 Mulliken charges:
               1
     1  C   -0.142398
     2  C   -0.142481
     3  N   -0.173643
     4  N   -0.047830
     5  N   -0.173637
     6  H    0.162297
     7  H    0.162324
     8  H    0.355369
 Sum of Mulliken charges =  -0.00000

 Dipole moment (field-independent basis, Debye):
    X=             -0.3135    Y=              0.0179    Z=             -0.0000  Tot=              0.3140
 Quadrupole moment (field-independent basis, Debye-Ang):
   XX=            -18.1517   YY=            -34.4863   ZZ=            -30.6596
   XY=             -0.8174   XZ=              0.0000   YZ=              0.0000

  Exact polarizability:      62.919      -0.049      61.988       0.000      -0.000      34.433
 Approx polarizability:      80.914      -0.176      77.763       0.000      -0.000      39.181

 Summary of Natural Population Analysis:

                                       Natural Population
                Natural  -----------------------------------------------
    Atom  No    Charge         Core      Valence    Rydberg      Total
 -----------------------------------------------------------------------
      C    1   -0.07908      1.99932     4.05104    0.02872     6.07908
      C    2   -0.07906      1.99932     4.05102    0.02872     6.07906
      N    3   -0.28475      1.99950     5.25876    0.02650     7.28475
      N    4   -0.14834      1.99950     5.11642    0.03242     7.14834
      N    5   -0.28479      1.99950     5.25880    0.02650     7.28479
      H    6    0.22531      0.00000     0.77341    0.00128     0.77469
      H    7    0.22532      0.00000     0.77340    0.00128     0.77468
      H    8    0.42541      0.00000     0.57261    0.00198     0.57459
 =======================================================================
   * Total *   -0.00000      9.99715    25.85546    0.14739    36.00000

                      1                      2                      3
                      A                      A                      A
 Frequencies --    570.7940               675.5784               717.8845
 Red. masses --      1.7053                 3.6433                 2.6710
 Frc consts  --      0.3273                 0.9797                 0.8110
 IR Inten    --     67.2967                 0.0000                62.2886
 Raman Activ --      0.0240                 0.3220                 0.7845

                      4                      5                      6
                      A                      A                      A
 Frequencies --    838.6987               897.8014               972.6649
 Red. masses --      1.1584                 1.3742                 6.3219
 Frc consts  --      0.4801                 0.6526                 3.5239
 IR Inten    --     95.7027                 0.0022                49.3690
 Raman Activ --      1.4408                 0.4081                 4.6463

                      7                      8                      9
                      A                      A                      A
 Frequencies --    983.1295              1083.5393              1128.7503
 Red. masses --      4.4548                 1.6135                 1.8920
 Frc consts  --      2.5369                 1.1161                 1.4202
 IR Inten    --     25.9937                 1.0730                72.5441
 Raman Activ --      1.5223                 5.6019                 0.3287

                     10                     11                     12
                      A                      A                      A
 Frequencies --   1184.3028              1262.2988              1285.2615
 Red. masses --      7.7525                 1.9349                 8.2420
 Frc consts  --      6.4064                 1.8165                 8.0217
 IR Inten    --     17.5197                 9.6194                 0.0921
 Raman Activ --     44.6925                 0.8178                74.2275

                     13                     14                     15
                      A                      A                      A
 Frequencies --   1411.4646              1438.3081              1544.3249
 Red. masses --      2.1220                 3.1249                 2.2421
 Frc consts  --      2.4908                 3.8088                 3.1505
 IR Inten    --      5.0474                11.9579                 0.2382
 Raman Activ --      5.3749                27.4368                 2.3221

                     16                     17                     18
                      A                      A                      A
 Frequencies --   3258.6800              3273.3369              3640.4266
 Red. masses --      1.0939                 1.1052                 1.0841
 Frc consts  --      6.8438                 6.9770                 8.4651
 IR Inten    --      0.0005                 0.2458               202.6437
 Raman Activ --    113.2458               200.5429               154.6499

 - Thermochemistry -
 -------------------
 Temperature   298.150 Kelvin.  Pressure   1.00000 Atm.
 Thermochemistry will use frequencies scaled by 0.9670.

 Molecular mass:    69.03270 amu.
 Principal axes and moments of inertia in atomic units:
                           1         2         3
     Eigenvalues --   176.68764 183.03150 359.71913
           X            0.05568   0.99845   0.00000
           Y            0.99845  -0.05568  -0.00000
           Z            0.00000  -0.00000   1.00000
 This molecule is an asymmetric top.
 Rotational symmetry number  1.
 Rotational temperatures (Kelvin)      0.49021     0.47322     0.24078
 Rotational constants (GHZ):          10.21430     9.86028     5.01708
 Zero-point vibrational energy     151349.9 (Joules/Mol)
                                   36.17349 (Kcal/Mol)
 Warning -- explicit consideration of   1 degrees of freedom as
           vibrations may cause significant error
 Vibrational temperatures:    794.14   939.93   998.79  1166.88  1249.11
          (Kelvin)           1353.27  1367.83  1507.53  1570.43  1647.72
                             1756.23  1788.18  1963.77  2001.11  2148.62
                             4533.79  4554.18  5064.92

 Zero-point correction=                           0.057646 (Hartree/Particle)
 Thermal correction to Energy=                    0.061270
 Thermal correction to Enthalpy=                  0.062214
 Thermal correction to Gibbs Free Energy=         0.031469
 Sum of electronic and zero-point Energies=           -242.260066
 Sum of electronic and thermal Energies=              -242.256442
 Sum of electronic and thermal Enthalpies=            -242.255497
 Sum of electronic and thermal Free Energies=         -242.286243

                     E (Thermal)             CV                S
                      KCal/Mol        Cal/Mol-Kelvin    Cal/Mol-Kelvin
 Total                   38.448             12.452             64.709
 Electronic               0.000              0.000              0.000
 Translational            0.889              2.981             38.613
 Rotational               0.889              2.981             23.968
 Vibrational             36.670              6.490              2.127
 Vibration     1          0.907              1.135              0.540

 Optimization completed.
    -- Stationary point found.
 Normal termination of Gaussian 16 at Fri Jun  2 11:11:26 2023.
