 Gaussian 16, Revision C.02,
 Gaussian 16:  ES64L-G16RevC.02  7-Dec-2021

 ----------------------------------------------------------------------
 #p freq=raman scale=0.967 guess=read geom=allcheck b3lyp/6-311+G(d,p)
 int=grid=ultrafine EmpiricalDispersion=GD3BJ SCRF=(Solvent=ethanol) sc
 f=(xqc,intrep,maxconventionalcycle=350) nosymm
 ----------------------------------------------------------------------

 Structure from the checkpoint file:  "/scratch1/svicchi/G09-1868930.pbs02/02-freq/PyrEt-CO2_binding-site_index-6-freq.chk"
 ------------------------------
 PyrEt-CO2_binding-site_index-6
 ------------------------------
 Charge = -1 Multiplicity = 1

                          Input orientation:
 ---------------------------------------------------------------------
 Center     Atomic      Atomic             Coordinates (Angstroms)
 Number     Number       Type             X           Y           Z
 ---------------------------------------------------------------------
      1          6           0       -0.457501    0.509179   -0.166153
      2          6           0       -1.054932   -0.704374   -0.398451
      3          6           0       -0.018333   -1.688056   -0.380751
      4          1           0       -2.109918   -0.871550   -0.557616
      5          6           0        1.180465   -1.049723   -0.135966
      6          1           0       -0.127554   -2.751442   -0.539551
      7          7           0        0.904475    0.311372   -0.004266
      8          1           0       -0.863423    1.501884   -0.086446
      9          6           0        2.542385   -1.672391   -0.109778
     10          1           0        2.395218   -2.750722    0.007366
     11          1           0        3.106376   -1.318289    0.753381
     12          6           0        3.358538   -1.410878   -1.386011
     13          1           0        2.834865   -1.794721   -2.266335
     14          1           0        4.334820   -1.901983   -1.329343
     15          1           0        3.523292   -0.340641   -1.519232
     16          6           0        1.827328    1.419702    0.331475
     17          8           0        2.993117    1.089929    0.611977
     18          8           0        1.304636    2.551311    0.294644
 ---------------------------------------------------------------------

 SCF Done:  E(RB3LYP) =  -477.097851813     A.U. after    1 cycles

 Alpha  occ. eigenvalues --  -19.06006 -19.05982 -14.34138 -10.28119 -10.18554
 Alpha  occ. eigenvalues --  -10.17465 -10.16084 -10.14854 -10.14817 -10.14468
 Alpha  occ. eigenvalues --   -1.04262  -0.95000  -0.94694  -0.77476  -0.76189
 Alpha  occ. eigenvalues --   -0.69509  -0.61445  -0.59467  -0.56016  -0.50050
 Alpha  occ. eigenvalues --   -0.46888  -0.43979  -0.43339  -0.42336  -0.41989
 Alpha  occ. eigenvalues --   -0.40654  -0.38452  -0.37961  -0.36948  -0.35186
 Alpha  occ. eigenvalues --   -0.34159  -0.33157  -0.26480  -0.25488  -0.24025
 Alpha  occ. eigenvalues --   -0.23438  -0.20243
 Alpha virt. eigenvalues --    0.00637   0.01281   0.02715   0.03058   0.03510
 Alpha virt. eigenvalues --    0.04837   0.05268   0.05609   0.06360   0.06482
 Alpha virt. eigenvalues --    0.07838   0.07907   0.08522   0.09114   0.10116

 Mulliken charges:
               1
     1  C    0.063603
     2  C   -0.435264
     3  C   -0.175176
     4  H    0.125382
     5  C    0.054194
     6  H    0.115933
     7  N    0.003492
     8  H    0.145523
     9  C   -0.396158
    10  H    0.126745
    11  H    0.166597
    12  C   -0.494062
    13  H    0.129968
    14  H    0.131898
    15  H    0.144681
    16  C    0.379200
    17  O   -0.535536
    18  O   -0.551021
 Sum of Mulliken charges =  -1.00000

 Dipole moment (field-independent basis, Debye):
    X=             -8.7218    Y=             -7.7447    Z=             -1.7674  Tot=             11.7972
 Quadrupole moment (field-independent basis, Debye-Ang):
   XX=            -86.0351   YY=            -82.0047   ZZ=            -66.3347
   XY=            -16.6893   XZ=             -5.0631   YZ=             -3.4277

  Exact polarizability:     157.486      -0.263     150.324       6.265       7.994      97.163
 Approx polarizability:     171.589      -2.542     166.878      10.366       6.853     105.705

                      1                      2                      3
                      A                      A                      A
 Frequencies --     35.4926               110.5609               136.8130
 Red. masses --      8.0589                 3.0185                 3.8467
 Frc consts  --      0.0060                 0.0217                 0.0424
 IR Inten    --      0.3067                 5.3984                 3.3590
 Raman Activ --      2.2969                 2.1044                 4.7251

                      4                      5                      6
                      A                      A                      A
 Frequencies --    168.1557               206.7250               251.4207
 Red. masses --      4.6377                 1.2556                 3.1877
 Frc consts  --      0.0773                 0.0316                 0.1187
 IR Inten    --      1.7441                 2.3185                 2.1719
 Raman Activ --      2.1106                 0.2716                 1.0267

                      7                      8                      9
                      A                      A                      A
 Frequencies --    344.8259               380.0836               431.5834
 Red. masses --      2.5534                 4.3917                 5.5558
 Frc consts  --      0.1789                 0.3738                 0.6097
 IR Inten    --      6.3664                 2.9227                 3.2837
 Raman Activ --      2.2604                 1.3071                 6.5980

                     10                     11                     12
                      A                      A                      A
 Frequencies --    538.3915               621.1273               658.8598
 Red. masses --      4.7373                 3.2360                 4.0001
 Frc consts  --      0.8091                 0.7356                 1.0231
 IR Inten    --      1.7450                 5.5230                11.4564
 Raman Activ --      3.2367                 0.9333                13.5241

                     13                     14                     15
                      A                      A                      A
 Frequencies --    687.6489               722.9367               775.1705
 Red. masses --      2.5737                 1.3467                 1.8497
 Frc consts  --      0.7170                 0.4147                 0.6549
 IR Inten    --      9.0040               150.1000                98.5089
 Raman Activ --      7.1893                10.9554                11.8433

                     16                     17                     18
                      A                      A                      A
 Frequencies --    778.2816               791.2384               810.9386
 Red. masses --      3.4752                 1.7905                 3.3691
 Frc consts  --      1.2402                 0.6605                 1.3054
 IR Inten    --    205.8194                 0.4913                47.1016
 Raman Activ --     12.2809                 9.8571                 2.7439

                     19                     20                     21
                      A                      A                      A
 Frequencies --    871.0013               906.5746               960.6781
 Red. masses --      1.3135                 4.6726                 2.1956
 Frc consts  --      0.5871                 2.2626                 1.1939
 IR Inten    --      1.0759                 7.5975                 5.4328
 Raman Activ --      4.4629                15.6507                16.6923

                     22                     23                     24
                      A                      A                      A
 Frequencies --   1020.9398              1057.0732              1062.2351
 Red. masses --      1.4234                 1.6065                 1.5617
 Frc consts  --      0.8742                 1.0576                 1.0382
 IR Inten    --      5.1944               198.7578                26.7150
 Raman Activ --      3.6985                 4.1561                12.1829

                     25                     26                     27
                      A                      A                      A
 Frequencies --   1081.9202              1165.5333              1209.1816
 Red. masses --      1.7251                 3.0007                 2.2758
 Frc consts  --      1.1898                 2.4017                 1.9605
 IR Inten    --      5.6491                 3.4085               272.3283
 Raman Activ --     15.8287                 3.1425                35.3418

                     28                     29                     30
                      A                      A                      A
 Frequencies --   1249.1543              1281.1339              1302.4199
 Red. masses --      2.3105                 1.8810                 3.2567
 Frc consts  --      2.1241                 1.8190                 3.2549
 IR Inten    --    334.3611               129.7293               442.1132
 Raman Activ --    116.0438                 5.5248                15.3930

                     31                     32                     33
                      A                      A                      A
 Frequencies --   1349.6790              1360.5255              1389.0590
 Red. masses --      2.0317                 2.1275                 1.2321
 Frc consts  --      2.1805                 2.3202                 1.4007
 IR Inten    --      2.7223                10.3665                 5.8478
 Raman Activ --     13.3995                30.4595                16.9296

                     34                     35                     36
                      A                      A                      A
 Frequencies --   1435.5256              1461.3840              1482.3612
 Red. masses --      2.9401                 1.1116                 1.1041
 Frc consts  --      3.5697                 1.3987                 1.4294
 IR Inten    --      7.0379                20.7997                16.6967
 Raman Activ --     25.9751                42.7886                18.3790

                     37                     38                     39
                      A                      A                      A
 Frequencies --   1495.2264              1503.2087              1574.7944
 Red. masses --      1.3411                 2.2560                 5.3883
 Frc consts  --      1.7666                 3.0035                 7.8731
 IR Inten    --      1.3562                22.4188                19.1168
 Raman Activ --     88.8116               182.9990                39.4563

                     40                     41                     42
                      A                      A                      A
 Frequencies --   1684.4525              3019.0113              3033.8015
 Red. masses --     12.1411                 1.0372                 1.0666
 Frc consts  --     20.2967                 5.5700                 5.7840
 IR Inten    --   1117.3203                71.4022                63.5594
 Raman Activ --     13.0953               349.9983               391.9497

                     43                     44                     45
                      A                      A                      A
 Frequencies --   3073.3262              3097.5281              3111.0234
 Red. masses --      1.1011                 1.0931                 1.1011
 Frc consts  --      6.1276                 6.1793                 6.2789
 IR Inten    --     47.4096                47.1276                48.2882
 Raman Activ --    227.8303               279.5861                47.1913

                     46                     47                     48
                      A                      A                      A
 Frequencies --   3208.6725              3225.9100              3278.8981
 Red. masses --      1.0917                 1.0979                 1.0991
 Frc consts  --      6.6223                 6.7316                 6.9619
 IR Inten    --     19.9607                13.6972                 3.7230
 Raman Activ --    190.2872               288.5243               170.1001

 - Thermochemistry -
 -------------------
 Temperature   298.150 Kelvin.  Pressure   1.00000 Atm.
 Thermochemistry will use frequencies scaled by 0.9670.

 Molecular mass:   138.05550 amu.
 Principal axes and moments of inertia in atomic units:
                           1         2         3
     Eigenvalues --  1101.809521192.873952124.16256
           X            0.10848   0.99402   0.01249
           Y            0.95853  -0.10126  -0.26639
           Z            0.26353  -0.04087   0.96379
 This molecule is an asymmetric top.
 Rotational symmetry number  1.
 Warning -- assumption of classical behavior for rotation
           may cause significant error
 Rotational temperatures (Kelvin)      0.07861     0.07261     0.04078
 Rotational constants (GHZ):           1.63798     1.51294     0.84962
 Zero-point vibrational energy     355148.6 (Joules/Mol)
                                   84.88255 (Kcal/Mol)
 Warning -- explicit consideration of  11 degrees of freedom as
           vibrations may cause significant error
 Vibrational temperatures:     49.38   153.82   190.35   233.95   287.62
          (Kelvin)            349.80   479.76   528.81   600.46   749.06
                              864.17   916.67   956.72  1005.82  1078.49
                             1082.82  1100.85  1128.26  1211.82  1261.31
                             1336.59  1420.43  1470.70  1477.88  1505.27
                             1621.60  1682.33  1737.94  1782.44  1812.05
                             1877.80  1892.90  1932.59  1997.24  2033.22
                             2062.41  2080.30  2091.41  2191.01  2343.57
                             4200.34  4220.92  4275.91  4309.58  4328.36
                             4464.22  4488.20  4561.92

 Zero-point correction=                           0.135269 (Hartree/Particle)
 Thermal correction to Energy=                    0.144637
 Thermal correction to Enthalpy=                  0.145581
 Thermal correction to Gibbs Free Energy=         0.100060
 Sum of electronic and zero-point Energies=           -476.962583
 Sum of electronic and thermal Energies=              -476.953215
 Sum of electronic and thermal Enthalpies=            -476.952271
 Sum of electronic and thermal Free Energies=         -476.997791

                     E (Thermal)             CV                S
                      KCal/Mol        Cal/Mol-Kelvin    Cal/Mol-Kelvin
 Total                   90.761             34.716             95.807
 Electronic               0.000              0.000              0.000
 Translational            0.889              2.981             40.679
 Rotational               0.889              2.981             29.414
 Vibrational             88.984             28.755             25.714
 Vibration     1          0.594              1.983              5.563
 Vibration     2          0.606              1.944              3.324
 Vibration     3          0.612              1.921              2.912
 Vibration     4          0.623              1.888              2.519
 Vibration     5          0.638              1.840              2.134
 Vibration     6          0.659              1.774              1.780
 Vibration     7          0.715              1.609              1.243
 Vibration     8          0.740              1.539              1.090
 Vibration     9          0.780              1.433              0.901
 Vibration    10          0.876              1.204              0.609
 Vibration    11          0.959              1.030              0.449

 Normal termination of Gaussian 16 at Thu Jan 11 13:03:14 2024.
