 Gaussian 16, Revision C.01,
 Gaussian 16:  ES64L-G16RevC.01  3-Jul-2019

 ----------------------------------------------------------------------
 #p freq=raman scale=0.967 pop=(nbo,full,hirshfeld) guess=read geom=all
 check b3lyp/6-311+G(d,p) int=grid=ultrafine EmpiricalDispersion=GD3BJ
 SCRF=(Solvent=ethanol) scf=(xqc,intrep,maxconventionalcycle=350) nosym
 m
 ----------------------------------------------------------------------

 Structure from the checkpoint file:  "/scratch1/svicchi/G09-659739.pbs02/02-freq/choline-H_dissociation-site_index-17-freq.chk"
 ----------------------------------------
 choline-H_dissociation-site_index-17.gjf
 ----------------------------------------
 Charge =  0 Multiplicity = 1

                          Input orientation:
 ---------------------------------------------------------------------
 Center     Atomic      Atomic             Coordinates (Angstroms)
 Number     Number       Type             X           Y           Z
 ---------------------------------------------------------------------
      1          7           0       -4.920174    1.801704    0.028980
      2          6           0       -6.161586    1.725166   -0.804463
      3          1           0       -6.307962    2.682534   -1.300071
      4          1           0       -7.008097    1.507749   -0.154955
      5          1           0       -6.043054    0.936264   -1.544240
      6          6           0       -5.118728    2.816563    1.124182
      7          1           0       -5.892718    2.448937    1.796297
      8          1           0       -5.434640    3.751866    0.665896
      9          1           0       -4.150440    2.931806    1.610908
     10          6           0       -4.654405    0.461754    0.646648
     11          1           0       -3.801595    0.563458    1.311827
     12          1           0       -4.443685   -0.254702   -0.144248
     13          1           0       -5.541125    0.158358    1.199583
     14          6           0       -3.748893    2.231178   -0.855813
     15          6           0       -2.355472    1.995656   -0.227499
     16          1           0       -3.918740    3.290021   -1.057023
     17          1           0       -3.847003    1.668672   -1.787252
     18          8           0       -2.172566    2.528236    1.009650
     19          1           0       -1.676999    2.402117   -1.018072
     20          1           0       -2.179958    0.894585   -0.273301
 ---------------------------------------------------------------------

 SCF Done:  E(RB3LYP) =  -328.401478500     A.U. after    1 cycles

 Alpha  occ. eigenvalues --  -19.00645 -14.44110 -10.22556 -10.21922 -10.21109
 Alpha  occ. eigenvalues --  -10.20986 -10.19033  -1.01841  -0.90354  -0.75402
 Alpha  occ. eigenvalues --   -0.75044  -0.74750  -0.64536  -0.58437  -0.52662
 Alpha  occ. eigenvalues --   -0.52161  -0.50630  -0.45612  -0.44303  -0.41943
 Alpha  occ. eigenvalues --   -0.40844  -0.40753  -0.40471  -0.40125  -0.38426
 Alpha  occ. eigenvalues --   -0.36939  -0.33420  -0.19117  -0.18852
 Alpha virt. eigenvalues --    0.00110   0.01989   0.02362   0.02751   0.03645
 Alpha virt. eigenvalues --    0.04524   0.04630   0.04952   0.05503   0.06290
 Alpha virt. eigenvalues --    0.08417   0.08756   0.09378   0.10260   0.10366

 Mulliken charges:
               1
     1  N   -0.203684
     2  C   -0.312420
     3  H    0.201032
     4  H    0.194300
     5  H    0.200038
     6  C   -0.343759
     7  H    0.180814
     8  H    0.189396
     9  H    0.248886
    10  C   -0.324472
    11  H    0.212939
    12  H    0.199368
    13  H    0.190107
    14  C   -0.082075
    15  C   -0.290475
    16  H    0.195405
    17  H    0.178612
    18  O   -0.803081
    19  H    0.086134
    20  H    0.082934
 Sum of Mulliken charges =  -0.00000

 Dipole moment (field-independent basis, Debye):
    X=            -11.4934    Y=             -3.2319    Z=             -4.3147  Tot=             12.6949
 Quadrupole moment (field-independent basis, Debye-Ang):
   XX=             38.0018   YY=            -56.6547   ZZ=            -47.9834
   XY=            -13.6308   XZ=              8.5385   YZ=            -11.5385

  Exact polarizability:     104.689       1.080      95.808       0.510       2.796     100.105
 Approx polarizability:     104.763       0.637     102.416       0.249       3.172     107.587

 Summary of Natural Population Analysis:

                                       Natural Population
                Natural  -----------------------------------------------
    Atom  No    Charge         Core      Valence    Rydberg      Total
 -----------------------------------------------------------------------
      N    1   -0.34973      1.99949     5.33895    0.01129     7.34973
      C    2   -0.34632      1.99931     4.33352    0.01350     6.34632
      H    3    0.22188      0.00000     0.77702    0.00110     0.77812
      H    4    0.21964      0.00000     0.77909    0.00127     0.78036
      H    5    0.22031      0.00000     0.77861    0.00109     0.77969
      C    6   -0.36700      1.99929     4.35282    0.01489     6.36700
      H    7    0.20825      0.00000     0.79050    0.00125     0.79175
      H    8    0.21126      0.00000     0.78761    0.00113     0.78874
      H    9    0.26635      0.00000     0.73161    0.00204     0.73365
      C   10   -0.35662      1.99930     4.34270    0.01462     6.35662
      H   11    0.23790      0.00000     0.75971    0.00239     0.76210
      H   12    0.21854      0.00000     0.78005    0.00141     0.78146
      H   13    0.21625      0.00000     0.78254    0.00121     0.78375
      C   14   -0.18405      1.99923     4.16225    0.02257     6.18405
      C   15   -0.02810      1.99933     3.99383    0.03494     6.02810
      H   16    0.20405      0.00000     0.79388    0.00207     0.79595
      H   17    0.20739      0.00000     0.79046    0.00215     0.79261
      O   18   -1.02443      1.99984     7.00815    0.01644     9.02443
      H   19    0.11936      0.00000     0.87608    0.00456     0.88064
      H   20    0.10508      0.00000     0.89053    0.00440     0.89492
 =======================================================================
   * Total *   -0.00000     13.99579    43.84990    0.15431    58.00000

                      1                      2                      3
                      A                      A                      A
 Frequencies --     84.6054               192.8677               243.9816
 Red. masses --      3.8641                 3.4246                 1.0284
 Frc consts  --      0.0163                 0.0751                 0.0361
 IR Inten    --     36.1147                51.5219                 1.6771
 Raman Activ --      0.4417                 0.2890                 0.3102

                      4                      5                      6
                      A                      A                      A
 Frequencies --    283.7182               285.9372               309.6082
 Red. masses --      1.2652                 2.2849                 1.7179
 Frc consts  --      0.0600                 0.1101                 0.0970
 IR Inten    --      2.5368                18.5280                10.3554
 Raman Activ --      0.3588                 1.1593                 1.3577

                      7                      8                      9
                      A                      A                      A
 Frequencies --    336.2278               364.8472               417.6898
 Red. masses --      1.2079                 2.1435                 2.5408
 Frc consts  --      0.0805                 0.1681                 0.2612
 IR Inten    --      0.9157                 4.5131                 1.8407
 Raman Activ --      0.2151                 0.9908                 1.2269

                     10                     11                     12
                      A                      A                      A
 Frequencies --    439.3817               453.2049               570.6391
 Red. masses --      2.3842                 2.2265                 2.2733
 Frc consts  --      0.2712                 0.2694                 0.4361
 IR Inten    --      1.0813                 0.3435                13.5226
 Raman Activ --      0.6939                 0.6093                 5.5522

                     13                     14                     15
                      A                      A                      A
 Frequencies --    717.1548               857.8338               875.1422
 Red. masses --      3.1012                 2.7472                 2.0936
 Frc consts  --      0.9397                 1.1911                 0.9447
 IR Inten    --      2.9127                39.3425                 8.9317
 Raman Activ --     28.7720                15.1967                 3.9434

                     16                     17                     18
                      A                      A                      A
 Frequencies --    941.6791               962.0119               989.6500
 Red. masses --      2.9995                 2.4299                 2.4485
 Frc consts  --      1.5672                 1.3250                 1.4129
 IR Inten    --     27.0165                29.3542                54.5649
 Raman Activ --     21.7923                14.6237                 8.9629

                     19                     20                     21
                      A                      A                      A
 Frequencies --   1081.0362              1086.0493              1106.7862
 Red. masses --      1.5535                 1.2597                 2.2049
 Frc consts  --      1.0696                 0.8754                 1.5914
 IR Inten    --     26.6208                10.8237               205.6140
 Raman Activ --      6.2024                 1.0142                 7.4344

                     22                     23                     24
                      A                      A                      A
 Frequencies --   1150.7762              1163.8352              1230.9741
 Red. masses --      1.5153                 1.7198                 1.3496
 Frc consts  --      1.1823                 1.3725                 1.2049
 IR Inten    --     25.3122                60.8518                10.1745
 Raman Activ --      5.0167                 6.9605                 6.3681

                     25                     26                     27
                      A                      A                      A
 Frequencies --   1256.5817              1290.1328              1296.8899
 Red. masses --      1.3354                 1.4427                 1.9224
 Frc consts  --      1.2423                 1.4148                 1.9050
 IR Inten    --      3.9797                 1.0469                 1.5926
 Raman Activ --     19.8279                14.8041                 1.6761

                     28                     29                     30
                      A                      A                      A
 Frequencies --   1343.5473              1380.9690              1394.8691
 Red. masses --      1.5072                 1.3665                 1.1912
 Frc consts  --      1.6030                 1.5355                 1.3655
 IR Inten    --      2.4637                 0.1469                71.0253
 Raman Activ --      6.1814                 4.4512                11.3634

                     31                     32                     33
                      A                      A                      A
 Frequencies --   1422.8545              1443.0024              1467.1679
 Red. masses --      1.1340                 1.1547                 1.0673
 Frc consts  --      1.3527                 1.4167                 1.3536
 IR Inten    --     13.0838                 4.6421                 2.7923
 Raman Activ --      6.0799                 3.4143                 8.2617

                     34                     35                     36
                      A                      A                      A
 Frequencies --   1468.8386              1477.8928              1484.9695
 Red. masses --      1.1086                 1.0872                 1.0744
 Frc consts  --      1.4092                 1.3990                 1.3959
 IR Inten    --      4.1326                 9.2587                13.0997
 Raman Activ --      6.4503                 5.8890                43.8641

                     37                     38                     39
                      A                      A                      A
 Frequencies --   1489.6532              1495.0259              1504.1154
 Red. masses --      1.0452                 1.0574                 1.0948
 Frc consts  --      1.3665                 1.3925                 1.4592
 IR Inten    --      3.7798                 9.9530                32.1760
 Raman Activ --     29.8079                10.6477                 3.2201

                     40                     41                     42
                      A                      A                      A
 Frequencies --   1512.7558              1526.4756              2737.9105
 Red. masses --      1.0654                 1.0549                 1.0921
 Frc consts  --      1.4365                 1.4483                 4.8232
 IR Inten    --     33.8611                62.8296               316.8679
 Raman Activ --      3.9065                 3.3479               617.6019

                     43                     44                     45
                      A                      A                      A
 Frequencies --   2772.2056              3037.4441              3052.8758
 Red. masses --      1.0555                 1.0329                 1.0567
 Frc consts  --      4.7792                 5.6145                 5.8024
 IR Inten    --    384.8301                81.2840                32.3372
 Raman Activ --    455.1482               202.0607               219.4501

                     46                     47                     48
                      A                      A                      A
 Frequencies --   3068.2720              3075.5314              3112.5525
 Red. masses --      1.0312                 1.0314                 1.1085
 Frc consts  --      5.7198                 5.7482                 6.3275
 IR Inten    --     17.0626                25.3663                32.7905
 Raman Activ --    163.8229               529.8648               120.0928

                     49                     50                     51
                      A                      A                      A
 Frequencies --   3141.6017              3152.3536              3157.7978
 Red. masses --      1.1074                 1.1074                 1.1072
 Frc consts  --      6.4395                 6.4838                 6.5049
 IR Inten    --     17.7048                 8.5883                 9.9474
 Raman Activ --     74.0031                45.2335               104.6745

                     52                     53                     54
                      A                      A                      A
 Frequencies --   3164.5592              3166.3230              3178.3405
 Red. masses --      1.1072                 1.1077                 1.1085
 Frc consts  --      6.5330                 6.5428                 6.5979
 IR Inten    --     18.3280                10.0210                 1.4169
 Raman Activ --    166.5101                98.1427                68.7042

 - Thermochemistry -
 -------------------
 Temperature   298.150 Kelvin.  Pressure   1.00000 Atm.
 Thermochemistry will use frequencies scaled by 0.9670.

 Molecular mass:   103.09971 amu.
 Principal axes and moments of inertia in atomic units:
                           1         2         3
     Eigenvalues --   444.72045 972.818951018.35434
           X            0.97106  -0.21097  -0.11195
           Y            0.17819   0.32789   0.92776
           Z            0.15902   0.92086  -0.35600
 This molecule is an asymmetric top.
 Rotational symmetry number  1.
 Warning -- assumption of classical behavior for rotation
           may cause significant error
 Rotational temperatures (Kelvin)      0.19476     0.08903     0.08505
 Rotational constants (GHZ):           4.05815     1.85517     1.77221
 Zero-point vibrational energy     463983.1 (Joules/Mol)
                                  110.89462 (Kcal/Mol)
 Warning -- explicit consideration of  12 degrees of freedom as
           vibrations may cause significant error
 Vibrational temperatures:    117.71   268.34   339.45   394.74   397.82
          (Kelvin)            430.76   467.79   507.61   581.13   611.31
                              630.54   793.93   997.78  1193.50  1217.58
                             1310.16  1338.44  1376.90  1504.04  1511.02
                             1539.87  1601.07  1619.24  1712.65  1748.28
                             1794.96  1804.36  1869.27  1921.34  1940.68
                             1979.61  2007.65  2041.27  2043.59  2056.19
                             2066.03  2072.55  2080.03  2092.67  2104.69
                             2123.78  3809.25  3856.96  4225.99  4247.46
                             4268.88  4278.98  4330.49  4370.90  4385.86
                             4393.44  4402.84  4405.30  4422.02

 Zero-point correction=                           0.176722 (Hartree/Particle)
 Thermal correction to Energy=                    0.185233
 Thermal correction to Enthalpy=                  0.186177
 Thermal correction to Gibbs Free Energy=         0.144705
 Sum of electronic and zero-point Energies=           -328.224757
 Sum of electronic and thermal Energies=              -328.216246
 Sum of electronic and thermal Enthalpies=            -328.215301
 Sum of electronic and thermal Free Energies=         -328.256773

                     E (Thermal)             CV                S
                      KCal/Mol        Cal/Mol-Kelvin    Cal/Mol-Kelvin
 Total                  116.235             32.371             87.285
 Electronic               0.000              0.000              0.000
 Translational            0.889              2.981             39.809
 Rotational               0.889              2.981             27.579
 Vibrational            114.458             26.409             19.897
 Vibration     1          0.600              1.962              3.847
 Vibration     2          0.632              1.858              2.262
 Vibration     3          0.655              1.786              1.833
 Vibration     4          0.677              1.721              1.569
 Vibration     5          0.678              1.717              1.555
 Vibration     6          0.692              1.675              1.420
 Vibration     7          0.709              1.625              1.284
 Vibration     8          0.729              1.569              1.154
 Vibration     9          0.769              1.462              0.948
 Vibration    10          0.787              1.416              0.876
 Vibration    11          0.798              1.387              0.832
 Vibration    12          0.907              1.136              0.540

 Normal termination of Gaussian 16 at Fri Jun  2 11:38:50 2023.
