 Gaussian 16, Revision C.02,
 Gaussian 16:  ES64L-G16RevC.02  7-Dec-2021

 ----------------------------------------------------------------------
 #p freq=raman scale=0.967 guess=read geom=allcheck b3lyp/6-311+G(d,p)
 int=grid=ultrafine EmpiricalDispersion=GD3BJ SCRF=(Solvent=ethanol) sc
 f=(xqc,intrep,maxconventionalcycle=350) nosymm
 ----------------------------------------------------------------------

 Structure from the checkpoint file:  "/scratch1/svicchi/G09-1868844.pbs02/02-freq/IMIDCOOCH3-CO2_binding-site_index-5-freq.chk"
 -----------------------------------
 IMIDCOOCH3-CO2_binding-site_index-5
 -----------------------------------
 Charge = -1 Multiplicity = 1

                          Input orientation:
 ---------------------------------------------------------------------
 Center     Atomic      Atomic             Coordinates (Angstroms)
 Number     Number       Type             X           Y           Z
 ---------------------------------------------------------------------
      1          6           0       -2.133432    3.757801   -0.140288
      2          7           0       -3.079950    2.862123   -0.358879
      3          6           0       -2.756456    2.282661   -1.570033
      4          6           0       -1.610892    2.845366   -2.071061
      5          1           0       -3.365683    1.505125   -2.004035
      6          7           0       -1.211478    3.789212   -1.149421
      7          1           0       -1.062154    2.695766   -2.984035
      8          6           0       -2.058250    4.572603    1.104232
      9          8           0       -2.918974    5.347934    1.459309
     10          8           0       -0.969751    4.273856    1.820337
     11          6           0       -0.757347    5.052082    3.017196
     12          1           0        0.166067    4.673918    3.447266
     13          1           0       -0.656660    6.106592    2.759442
     14          1           0       -1.587505    4.916830    3.710208
     15          6           0       -0.104933    4.792546   -1.343053
     16          8           0        0.687325    4.492210   -2.243995
     17          8           0       -0.178073    5.763515   -0.578900
 ---------------------------------------------------------------------

 SCF Done:  E(RB3LYP) =  -642.447805714     A.U. after    1 cycles

 Alpha  occ. eigenvalues --  -19.17673 -19.12365 -19.07694 -19.07687 -14.36731
 Alpha  occ. eigenvalues --  -14.30835 -10.31830 -10.29794 -10.23773 -10.22370
 Alpha  occ. eigenvalues --  -10.19937 -10.18897  -1.12032  -1.06307  -1.03253
 Alpha  occ. eigenvalues --   -1.01025  -0.96909  -0.87334  -0.77628  -0.72698
 Alpha  occ. eigenvalues --   -0.63911  -0.61249  -0.59814  -0.55834  -0.49584
 Alpha  occ. eigenvalues --   -0.49186  -0.48803  -0.47167  -0.45629  -0.44087
 Alpha  occ. eigenvalues --   -0.43896  -0.42163  -0.41768  -0.40091  -0.39421
 Alpha  occ. eigenvalues --   -0.36809  -0.31836  -0.30626  -0.29899  -0.28787
 Alpha  occ. eigenvalues --   -0.27458  -0.26930  -0.25367  -0.23810
 Alpha virt. eigenvalues --   -0.03015   0.00798   0.01041   0.02144   0.03272
 Alpha virt. eigenvalues --    0.03702   0.04048   0.04547   0.05257   0.05942
 Alpha virt. eigenvalues --    0.06388   0.06725   0.07514   0.08398   0.08771

 Mulliken charges:
               1
     1  C    0.227282
     2  N   -0.211037
     3  C   -0.141654
     4  C   -0.024656
     5  H    0.138897
     6  N   -0.087598
     7  H    0.158190
     8  C   -0.301207
     9  O   -0.318272
    10  O   -0.081650
    11  C   -0.214834
    12  H    0.166852
    13  H    0.168242
    14  H    0.166814
    15  C    0.365064
    16  O   -0.513463
    17  O   -0.496969
 Sum of Mulliken charges =  -1.00000

 Dipole moment (field-independent basis, Debye):
    X=              5.1227    Y=            -23.6965    Z=              4.7496  Tot=             24.7048
 Quadrupole moment (field-independent basis, Debye-Ang):
   XX=           -100.2113   YY=           -194.5943   ZZ=            -71.5463
   XY=             22.1182   XZ=             11.7884   YZ=             26.4449

  Exact polarizability:     132.624      14.839     123.026     -11.903      27.341     141.197
 Approx polarizability:     152.112       9.585     139.777     -18.214      30.416     153.411

                      1                      2                      3
                      A                      A                      A
 Frequencies --     29.4821                72.5889                86.8375
 Red. masses --      8.6817                 3.7445                 7.2588
 Frc consts  --      0.0044                 0.0116                 0.0323
 IR Inten    --      3.0546                11.4211                 3.7877
 Raman Activ --      4.5951                 0.7438                 6.2802

                      4                      5                      6
                      A                      A                      A
 Frequencies --    130.0238               152.8428               155.7810
 Red. masses --      6.0523                 1.4601                 3.1045
 Frc consts  --      0.0603                 0.0201                 0.0444
 IR Inten    --     12.0968                 2.1607                 3.7867
 Raman Activ --      4.8331                 1.1138                 1.5019

                      7                      8                      9
                      A                      A                      A
 Frequencies --    200.5801               283.0249               305.2750
 Red. masses --      6.1233                 6.4839                 4.5935
 Frc consts  --      0.1451                 0.3060                 0.2522
 IR Inten    --      4.6002                11.5608                12.0170
 Raman Activ --      1.0159                 2.3409                 2.4161

                     10                     11                     12
                      A                      A                      A
 Frequencies --    355.0242               418.7747               439.6010
 Red. masses --      7.8060                12.0222                 7.3847
 Frc consts  --      0.5797                 1.2422                 0.8408
 IR Inten    --      1.1050                 0.8332                12.1710
 Raman Activ --      2.0186                 7.6253                 6.7291

                     13                     14                     15
                      A                      A                      A
 Frequencies --    584.7117               636.6041               724.2613
 Red. masses --      8.1368                 3.5530                 8.0310
 Frc consts  --      1.6390                 0.8484                 2.4820
 IR Inten    --      9.4533                 2.8097                35.3847
 Raman Activ --      0.5909                 7.9016                 2.4362

                     16                     17                     18
                      A                      A                      A
 Frequencies --    754.8338               768.7790               783.3353
 Red. masses --     12.1052                 1.6284                 4.5092
 Frc consts  --      4.0637                 0.5671                 1.6302
 IR Inten    --    352.9797                94.2743                90.6561
 Raman Activ --      7.5016                11.0821                 4.7297

                     19                     20                     21
                      A                      A                      A
 Frequencies --    800.4210               826.5660               873.8793
 Red. masses --      7.0255                 5.6159                 1.3953
 Frc consts  --      2.6519                 2.2606                 0.6278
 IR Inten    --     10.8032                44.7976                 2.0467
 Raman Activ --      3.6709                16.7008                 8.0020

                     22                     23                     24
                      A                      A                      A
 Frequencies --    942.2450               979.1197              1055.5988
 Red. masses --      6.3770                 8.4207                 1.7119
 Frc consts  --      3.3358                 4.7563                 1.1239
 IR Inten    --      1.9510                19.8141               137.4031
 Raman Activ --     15.4854                20.8875                 6.6548

                     25                     26                     27
                      A                      A                      A
 Frequencies --   1122.7935              1144.4431              1166.2377
 Red. masses --      3.0504                 2.8479                 1.2880
 Frc consts  --      2.2658                 2.1977                 1.0322
 IR Inten    --    142.4999                51.2351                 1.1856
 Raman Activ --      1.5050                32.5437                 4.4290

                     28                     29                     30
                      A                      A                      A
 Frequencies --   1205.6086              1211.0691              1254.2168
 Red. masses --      2.0408                 2.2589                 7.0895
 Frc consts  --      1.7477                 1.9521                 6.5707
 IR Inten    --    165.5206               251.1131               597.9932
 Raman Activ --     41.4126                35.8116                10.7647

                     31                     32                     33
                      A                      A                      A
 Frequencies --   1288.0697              1362.4467              1433.0468
 Red. masses --      7.0263                 5.5209                 3.4832
 Frc consts  --      6.8684                 6.0381                 4.2145
 IR Inten    --    501.3995                 2.0309                55.7472
 Raman Activ --     25.8826                17.0337                48.1165

                     34                     35                     36
                      A                      A                      A
 Frequencies --   1464.0544              1476.9461              1485.0557
 Red. masses --      1.5042                 1.0466                 1.0889
 Frc consts  --      1.8996                 1.3452                 1.4149
 IR Inten    --     12.2049                14.8265                27.4523
 Raman Activ --     25.1654                19.1225                43.0486

                     37                     38                     39
                      A                      A                      A
 Frequencies --   1488.8154              1534.8660              1734.9936
 Red. masses --      3.2187                 5.7744                12.7210
 Frc consts  --      4.2036                 8.0149                22.5614
 IR Inten    --     61.4836                39.2074              1602.1270
 Raman Activ --    272.4320                 5.1400                27.2520

                     40                     41                     42
                      A                      A                      A
 Frequencies --   1750.1376              3056.5215              3133.3395
 Red. masses --     12.0011                 1.0296                 1.1076
 Frc consts  --     21.6578                 5.6673                 6.4070
 IR Inten    --    187.0094                39.3119                25.0954
 Raman Activ --    129.8089               281.6283                93.6471

                     43                     44                     45
                      A                      A                      A
 Frequencies --   3168.5474              3236.9897              3287.0272
 Red. masses --      1.1062                 1.0950                 1.1014
 Frc consts  --      6.5431                 6.7600                 7.0115
 IR Inten    --     16.7722                10.9761                 4.6779
 Raman Activ --    116.3950               217.7903               201.5238

 - Thermochemistry -
 -------------------
 Temperature   298.150 Kelvin.  Pressure   1.00000 Atm.
 Thermochemistry will use frequencies scaled by 0.9670.

 Molecular mass:   169.02493 amu.
 Principal axes and moments of inertia in atomic units:
                           1         2         3
     Eigenvalues --  1319.343502053.492292983.70259
           X           -0.10206   0.83241  -0.54469
           Y            0.34264   0.54346   0.76632
           Z            0.93391  -0.10842  -0.34068
 This molecule is an asymmetric top.
 Rotational symmetry number  1.
 Warning -- assumption of classical behavior for rotation
           may cause significant error
 Rotational temperatures (Kelvin)      0.06565     0.04218     0.02903
 Rotational constants (GHZ):           1.36791     0.87886     0.60487
 Zero-point vibrational energy     291310.8 (Joules/Mol)
                                   69.62495 (Kcal/Mol)
 Warning -- explicit consideration of  14 degrees of freedom as
           vibrations may cause significant error
 Vibrational temperatures:     41.02   100.99   120.82   180.90   212.65
          (Kelvin)            216.74   279.07   393.77   424.73   493.94
                              582.64   611.62   813.51   885.71  1007.66
                             1050.20  1069.60  1089.85  1113.62  1150.00
                             1215.83  1310.94  1362.25  1468.65  1562.14
                             1592.26  1622.58  1677.36  1684.96  1744.99
                             1792.09  1895.57  1993.79  2036.94  2054.87
                             2066.15  2071.38  2135.45  2413.89  2434.96
                             4252.53  4359.41  4408.39  4503.62  4573.23

 Zero-point correction=                           0.110954 (Hartree/Particle)
 Thermal correction to Energy=                    0.121903
 Thermal correction to Enthalpy=                  0.122847
 Thermal correction to Gibbs Free Energy=         0.072640
 Sum of electronic and zero-point Energies=           -642.336851
 Sum of electronic and thermal Energies=              -642.325903
 Sum of electronic and thermal Enthalpies=            -642.324959
 Sum of electronic and thermal Free Energies=         -642.375166

                     E (Thermal)             CV                S
                      KCal/Mol        Cal/Mol-Kelvin    Cal/Mol-Kelvin
 Total                   76.495             38.149            105.670
 Electronic               0.000              0.000              0.000
 Translational            0.889              2.981             41.283
 Rotational               0.889              2.981             30.470
 Vibrational             74.718             32.188             33.918
 Vibration     1          0.593              1.984              5.931
 Vibration     2          0.598              1.968              4.148
 Vibration     3          0.601              1.960              3.796
 Vibration     4          0.611              1.927              3.010
 Vibration     5          0.617              1.905              2.700
 Vibration     6          0.618              1.902              2.664
 Vibration     7          0.635              1.848              2.190
 Vibration     8          0.676              1.722              1.573
 Vibration     9          0.689              1.683              1.444
 Vibration    10          0.722              1.589              1.197
 Vibration    11          0.770              1.459              0.945
 Vibration    12          0.787              1.416              0.875
 Vibration    13          0.921              1.106              0.513
 Vibration    14          0.975              0.999              0.424

 Optimization completed.
    -- Stationary point found.
 Normal termination of Gaussian 16 at Thu Jan 11 13:52:00 2024.
