 Gaussian 16, Revision C.01,
 Gaussian 16:  ES64L-G16RevC.01  3-Jul-2019

 ----------------------------------------------------------------------
 #p freq=raman scale=0.967 pop=(nbo,full,hirshfeld) guess=read geom=all
 check b3lyp/6-311+G(d,p) int=grid=ultrafine EmpiricalDispersion=GD3BJ
 SCRF=(Solvent=ethanol) scf=(xqc,intrep,maxconventionalcycle=350) nosym
 m
 ----------------------------------------------------------------------

 Structure from the checkpoint file:  "/scratch1/svicchi/G09-659885.pbs02/02-freq/EDA-CO2_binding_direct-site_index-5-freq.chk"
 ---------------------------------------
 EDA-CO2_binding_direct-site_index-5.gjf
 ---------------------------------------
 Charge =  0 Multiplicity = 1

                          Input orientation:
 ---------------------------------------------------------------------
 Center     Atomic      Atomic             Coordinates (Angstroms)
 Number     Number       Type             X           Y           Z
 ---------------------------------------------------------------------
      1          7           0        1.947243   -0.829309    0.057547
      2          6           0        3.003188    0.126014    0.410904
      3          6           0        4.428970   -0.343160    0.108681
      4          1           0        2.915910    0.348628    1.480063
      5          1           0        2.813735    1.061985   -0.121822
      6          7           0        5.403786    0.687479    0.492766
      7          1           0        4.527555   -0.515955   -0.967468
      8          1           0        4.598008   -1.308148    0.610204
      9          1           0        6.345428    0.386710    0.260531
     10          1           0        2.088086   -1.708123    0.547934
     11          1           0        1.986921   -1.044743   -0.934796
     12          1           0        5.389710    0.827606    1.499400
     13          6           0        5.024350    2.888747   -1.192285
     14          8           0        4.769665    2.170974   -2.069824
     15          8           0        5.265924    3.680492   -0.377220
 ---------------------------------------------------------------------

 SCF Done:  E(RB3LYP) =  -379.262278418     A.U. after    1 cycles

 Alpha  occ. eigenvalues --  -19.19657 -19.19644 -14.29970 -14.29866 -10.35628
 Alpha  occ. eigenvalues --  -10.19244 -10.19118  -1.15817  -1.11915  -0.89869
 Alpha  occ. eigenvalues --   -0.87354  -0.70551  -0.60850  -0.56214  -0.52109
 Alpha  occ. eigenvalues --   -0.51604  -0.51272  -0.50574  -0.49018  -0.45984
 Alpha  occ. eigenvalues --   -0.41892  -0.41098  -0.37832  -0.37029  -0.36873
 Alpha  occ. eigenvalues --   -0.34829  -0.25931  -0.24858
 Alpha virt. eigenvalues --   -0.00613   0.00795   0.01819   0.02854   0.03220
 Alpha virt. eigenvalues --    0.03630   0.05222   0.05793   0.06237   0.07052
 Alpha virt. eigenvalues --    0.08265   0.09661   0.10422   0.10780   0.12187

 Mulliken charges:
               1
     1  N   -0.514265
     2  C   -0.190497
     3  C   -0.317062
     4  H    0.137294
     5  H    0.139570
     6  N   -0.520178
     7  H    0.156652
     8  H    0.133120
     9  H    0.252961
    10  H    0.239150
    11  H    0.239535
    12  H    0.235614
    13  C    0.496598
    14  O   -0.238190
    15  O   -0.250304
 Sum of Mulliken charges =   0.00000

 Dipole moment (field-independent basis, Debye):
    X=              2.1039    Y=             -2.5765    Z=              0.7123  Tot=              3.4018
 Quadrupole moment (field-independent basis, Debye-Ang):
   XX=            -30.3996   YY=            -47.0010   ZZ=            -41.8835
   XY=            -12.0010   XZ=              4.9592   YZ=             -0.5735

  Exact polarizability:      71.525       5.545      80.269       3.817       7.667      74.652
 Approx polarizability:      71.964       6.112      88.774       5.935      15.405      89.389

 Summary of Natural Population Analysis:

                                       Natural Population
                Natural  -----------------------------------------------
    Atom  No    Charge         Core      Valence    Rydberg      Total
 -----------------------------------------------------------------------
      N    1   -0.86772      1.99957     5.84504    0.02311     7.86772
      C    2   -0.19582      1.99932     4.17502    0.02148     6.19582
      C    3   -0.20083      1.99931     4.18306    0.01846     6.20083
      H    4    0.18100      0.00000     0.81689    0.00211     0.81900
      H    5    0.18512      0.00000     0.81242    0.00245     0.81488
      N    6   -0.86930      1.99954     5.84803    0.02173     7.86930
      H    7    0.18549      0.00000     0.81223    0.00228     0.81451
      H    8    0.16333      0.00000     0.83392    0.00275     0.83667
      H    9    0.36562      0.00000     0.63217    0.00221     0.63438
      H   10    0.35640      0.00000     0.64071    0.00289     0.64360
      H   11    0.35673      0.00000     0.64055    0.00271     0.64327
      H   12    0.35930      0.00000     0.63808    0.00263     0.64070
      C   13    1.02576      1.99972     2.92176    0.05276     4.97424
      O   14   -0.52343      1.99971     6.50955    0.01418     8.52343
      O   15   -0.52165      1.99971     6.50806    0.01389     8.52165
 =======================================================================
   * Total *    0.00000     13.99686    41.81749    0.18565    56.00000

                      1                      2                      3
                      A                      A                      A
 Frequencies --     22.6988                45.3685                58.0562
 Red. masses --      9.1467                 5.1560                 1.8979
 Frc consts  --      0.0028                 0.0063                 0.0038
 IR Inten    --      0.5638                 0.4726                 9.4884
 Raman Activ --      3.1999                 0.3851                 0.7783

                      4                      5                      6
                      A                      A                      A
 Frequencies --     98.3526               125.3632               180.2354
 Red. masses --      5.5844                 3.5803                 3.2574
 Frc consts  --      0.0318                 0.0332                 0.0623
 IR Inten    --      1.1519                 3.7976                 3.7563
 Raman Activ --      1.4302                 2.9041                 3.0850

                      7                      8                      9
                      A                      A                      A
 Frequencies --    257.8683               281.1533               309.9826
 Red. masses --      1.4117                 1.2260                 1.5835
 Frc consts  --      0.0553                 0.0571                 0.0896
 IR Inten    --     16.9890                73.1830                51.7868
 Raman Activ --      0.3059                 0.3333                 0.1689

                     10                     11                     12
                      A                      A                      A
 Frequencies --    465.3572               601.6602               664.0266
 Red. masses --      3.6635                12.7123                12.6792
 Frc consts  --      0.4674                 2.7113                 3.2939
 IR Inten    --     16.9132               133.8154                46.8129
 Raman Activ --      5.5077                34.0065                 0.0845

                     13                     14                     15
                      A                      A                      A
 Frequencies --    779.4136               858.9393               873.7346
 Red. masses --      1.0957                 1.4673                 1.3322
 Frc consts  --      0.3922                 0.6378                 0.5992
 IR Inten    --     13.4544               231.6791               150.2274
 Raman Activ --      0.4150                 5.8061                 8.1870

                     16                     17                     18
                      A                      A                      A
 Frequencies --    973.6771              1017.5462              1064.7557
 Red. masses --      1.5161                 1.6156                 2.7019
 Frc consts  --      0.8469                 0.9856                 1.8048
 IR Inten    --     46.5809                37.8635                19.4349
 Raman Activ --     11.7424                 7.7905                 2.7440

                     19                     20                     21
                      A                      A                      A
 Frequencies --   1089.3679              1154.7669              1265.2917
 Red. masses --      2.8679                 1.4419                 1.4271
 Frc consts  --      2.0052                 1.1328                 1.3461
 IR Inten    --      4.0779                 5.6437                 5.3740
 Raman Activ --     14.8756                 2.5783                 3.0284

                     22                     23                     24
                      A                      A                      A
 Frequencies --   1324.7855              1365.7930              1366.6770
 Red. masses --      1.1451                 6.7530                 1.3934
 Frc consts  --      1.1841                 7.4220                 1.5334
 IR Inten    --      4.9000                 6.6547                 6.8370
 Raman Activ --     14.2251                53.9099                 9.2071

                     25                     26                     27
                      A                      A                      A
 Frequencies --   1386.1990              1423.2473              1483.3028
 Red. masses --      1.1897                 1.4249                 1.0805
 Frc consts  --      1.3469                 1.7006                 1.4007
 IR Inten    --      1.2050                 2.7411                 0.3836
 Raman Activ --      9.9173                 2.7315                26.0817

                     28                     29                     30
                      A                      A                      A
 Frequencies --   1506.5843              1644.4296              1651.7027
 Red. masses --      1.0893                 1.0864                 1.0897
 Frc consts  --      1.4567                 1.7309                 1.7515
 IR Inten    --      3.6419                43.0590                48.7299
 Raman Activ --      4.2110                 5.5585                 5.1384

                     31                     32                     33
                      A                      A                      A
 Frequencies --   2374.6040              2958.2466              3021.5122
 Red. masses --     12.8620                 1.0716                 1.0637
 Frc consts  --     42.7309                 5.5254                 5.7217
 IR Inten    --   1082.4828               116.9291                48.8506
 Raman Activ --      1.3905               328.5550               304.4316

                     34                     35                     36
                      A                      A                      A
 Frequencies --   3047.4157              3071.5837              3487.1672
 Red. masses --      1.0866                 1.1035                 1.0494
 Frc consts  --      5.9454                 6.1340                 7.5184
 IR Inten    --     40.9627                85.7304                 0.2932
 Raman Activ --    169.5921                74.7463               193.4918

                     37                     38                     39
                      A                      A                      A
 Frequencies --   3491.0790              3559.7104              3564.1002
 Red. masses --      1.0506                 1.0931                 1.0925
 Frc consts  --      7.5440                 8.1611                 8.1767
 IR Inten    --      0.0499                 2.9773                 4.6329
 Raman Activ --    260.6287                86.0366               123.9734

 - Thermochemistry -
 -------------------
 Temperature   298.150 Kelvin.  Pressure   1.00000 Atm.
 Thermochemistry will use frequencies scaled by 0.9670.

 Molecular mass:   104.05858 amu.
 Principal axes and moments of inertia in atomic units:
                           1         2         3
     Eigenvalues --   444.364591571.145361718.06708
           X            0.52185   0.71158  -0.47045
           Y            0.80649  -0.23188   0.54388
           Z           -0.27793   0.66324   0.69488
 This molecule is an asymmetric top.
 Rotational symmetry number  1.
 Warning -- assumption of classical behavior for rotation
           may cause significant error
 Rotational temperatures (Kelvin)      0.19492     0.05513     0.05041
 Rotational constants (GHZ):           4.06140     1.14868     1.05045
 Zero-point vibrational energy     311845.7 (Joules/Mol)
                                   74.53292 (Kcal/Mol)
 Warning -- explicit consideration of  11 degrees of freedom as
           vibrations may cause significant error
 Vibrational temperatures:     31.58    63.12    80.77   136.84   174.42
          (Kelvin)            250.76   358.77   391.17   431.28   647.45
                              837.09   923.86  1084.40  1195.04  1215.62
                             1354.67  1415.71  1481.39  1515.63  1606.62
                             1760.40  1843.17  1900.22  1901.45  1928.61
                             1980.16  2063.72  2096.11  2287.89  2298.01
                             3303.78  4115.80  4203.82  4239.86  4273.49
                             4851.69  4857.13  4952.62  4958.72

 Zero-point correction=                           0.118776 (Hartree/Particle)
 Thermal correction to Energy=                    0.128636
 Thermal correction to Enthalpy=                  0.129580
 Thermal correction to Gibbs Free Energy=         0.081501
 Sum of electronic and zero-point Energies=           -379.143503
 Sum of electronic and thermal Energies=              -379.133642
 Sum of electronic and thermal Enthalpies=            -379.132698
 Sum of electronic and thermal Free Energies=         -379.180777

                     E (Thermal)             CV                S
                      KCal/Mol        Cal/Mol-Kelvin    Cal/Mol-Kelvin
 Total                   80.720             31.046            101.191
 Electronic               0.000              0.000              0.000
 Translational            0.889              2.981             39.837
 Rotational               0.889              2.981             28.574
 Vibrational             78.943             25.085             32.780
 Vibration     1          0.593              1.985              6.449
 Vibration     2          0.595              1.980              5.076
 Vibration     3          0.596              1.975              4.588
 Vibration     4          0.603              1.953              3.552
 Vibration     5          0.609              1.931              3.081
 Vibration     6          0.627              1.874              2.389
 Vibration     7          0.662              1.764              1.735
 Vibration     8          0.675              1.725              1.584
 Vibration     9          0.692              1.674              1.418
 Vibration    10          0.809              1.361              0.796
 Vibration    11          0.939              1.071              0.482

 Optimization completed on the basis of negligible forces.
    -- Stationary point found.
 Normal termination of Gaussian 16 at Fri Jun  2 14:09:21 2023.
