 Gaussian 16, Revision C.01,
 Gaussian 16:  ES64L-G16RevC.01  3-Jul-2019

 ----------------------------------------------------------------------
 #p freq=raman scale=0.967 pop=(nbo,full,hirshfeld) guess=read geom=all
 check b3lyp/6-311+G(d,p) int=grid=ultrafine EmpiricalDispersion=GD3BJ
 SCRF=(Solvent=ethanol) scf=(xqc,intrep,maxconventionalcycle=350) nosym
 m
 ----------------------------------------------------------------------

 Structure from the checkpoint file:  "/scratch1/svicchi/G09-659912.pbs02/02-freq/EG-CO2_binding-site_index-0-freq.chk"
 -------------------------------
 EG-CO2_binding-site_index-0.gjf
 -------------------------------
 Charge = -1 Multiplicity = 1

                          Input orientation:
 ---------------------------------------------------------------------
 Center     Atomic      Atomic             Coordinates (Angstroms)
 Number     Number       Type             X           Y           Z
 ---------------------------------------------------------------------
      1          8           0        2.440603   -1.093512   -0.402975
      2          6           0        3.339623   -0.047263   -0.037570
      3          6           0        4.747963   -0.332044   -0.552095
      4          1           0        3.354693    0.079370    1.047644
      5          1           0        2.954917    0.865023   -0.499858
      6          8           0        5.648072    0.741144   -0.247798
      7          1           0        4.736279   -0.418252   -1.640194
      8          1           0        5.110740   -1.275874   -0.133322
      9          1           0        5.771024    0.770771    0.707499
     10          6           0        2.366859   -2.233056    0.447165
     11          8           0        1.595226   -3.104492    0.004406
     12          8           0        3.049467   -2.214106    1.488613
 ---------------------------------------------------------------------

 SCF Done:  E(RB3LYP) =  -418.540311967     A.U. after    1 cycles

 Alpha  occ. eigenvalues --  -19.12880 -19.12384 -19.06036 -19.05678 -10.28641
 Alpha  occ. eigenvalues --  -10.21060 -10.20547  -1.06987  -1.02613  -0.97746
 Alpha  occ. eigenvalues --   -0.94631  -0.73449  -0.63214  -0.53823  -0.51321
 Alpha  occ. eigenvalues --   -0.46585  -0.44944  -0.43478  -0.42456  -0.40327
 Alpha  occ. eigenvalues --   -0.39150  -0.34102  -0.33188  -0.30120  -0.26985
 Alpha  occ. eigenvalues --   -0.26348  -0.25256  -0.23135
 Alpha virt. eigenvalues --    0.00966   0.01950   0.03586   0.03989   0.06269
 Alpha virt. eigenvalues --    0.07307   0.07510   0.08087   0.08671   0.08906
 Alpha virt. eigenvalues --    0.11301   0.11815   0.13525   0.15749   0.16122

 Mulliken charges:
               1
     1  O   -0.281901
     2  C   -0.266046
     3  C   -0.113444
     4  H    0.156884
     5  H    0.152105
     6  O   -0.397371
     7  H    0.148763
     8  H    0.151974
     9  H    0.273750
    10  C    0.320489
    11  O   -0.592301
    12  O   -0.552902
 Sum of Mulliken charges =  -1.00000

 Dipole moment (field-independent basis, Debye):
    X=            -10.9455    Y=             12.3112    Z=             -1.1808  Tot=             16.5156
 Quadrupole moment (field-independent basis, Debye-Ang):
   XX=            -77.0061   YY=            -82.8394   ZZ=            -49.5284
   XY=             20.7478   XZ=             -1.1263   YZ=              9.0723

  Exact polarizability:      69.154      12.454      76.864       6.131      -0.872      68.519
 Approx polarizability:      71.544      11.247      78.117       9.880       0.845      75.841

 Summary of Natural Population Analysis:

                                       Natural Population
                Natural  -----------------------------------------------
    Atom  No    Charge         Core      Valence    Rydberg      Total
 -----------------------------------------------------------------------
      O    1   -0.65128      1.99975     6.63046    0.02106     8.65128
      C    2   -0.06068      1.99920     4.03642    0.02506     6.06068
      C    3   -0.05043      1.99923     4.02846    0.02275     6.05043
      H    4    0.18300      0.00000     0.81401    0.00299     0.81700
      H    5    0.17711      0.00000     0.82067    0.00222     0.82289
      O    6   -0.76480      1.99980     6.75134    0.01367     8.76480
      H    7    0.17409      0.00000     0.82378    0.00212     0.82591
      H    8    0.16905      0.00000     0.82842    0.00252     0.83095
      H    9    0.47158      0.00000     0.52395    0.00447     0.52842
      C   10    0.98200      1.99965     2.95402    0.06432     5.01800
      O   11   -0.81389      1.99975     6.80123    0.01290     8.81389
      O   12   -0.81575      1.99975     6.80371    0.01229     8.81575
 =======================================================================
   * Total *   -1.00000     13.99714    41.81647    0.18639    56.00000

                      1                      2                      3
                      A                      A                      A
 Frequencies --     74.1769                82.4517               110.6670
 Red. masses --      7.0351                 5.9546                 2.4448
 Frc consts  --      0.0228                 0.0239                 0.0176
 IR Inten    --      4.3089                 7.7913                10.2621
 Raman Activ --      1.6755                 1.2744                 0.4705

                      4                      5                      6
                      A                      A                      A
 Frequencies --    291.3454               313.8418               330.6548
 Red. masses --      1.5148                 2.3756                 2.8989
 Frc consts  --      0.0758                 0.1379                 0.1867
 IR Inten    --     62.8269               147.9274                12.9487
 Raman Activ --      0.5068                 0.6881                 1.2260

                      7                      8                      9
                      A                      A                      A
 Frequencies --    404.4597               621.9967               667.3499
 Red. masses --      9.1907                 7.8731                 4.6678
 Frc consts  --      0.8858                 1.7946                 1.2248
 IR Inten    --      2.0600                 2.9055                17.6190
 Raman Activ --      6.1101                 3.1619                 2.8565

                     10                     11                     12
                      A                      A                      A
 Frequencies --    795.9234               810.5599               839.5652
 Red. masses --      1.3886                12.0408                 4.4438
 Frc consts  --      0.5183                 4.6610                 1.8455
 IR Inten    --     77.7006                43.1913               331.5295
 Raman Activ --      1.8879                 0.8192                12.4130

                     13                     14                     15
                      A                      A                      A
 Frequencies --   1018.4698              1049.4890              1071.5405
 Red. masses --      4.4240                 5.5762                 4.0880
 Frc consts  --      2.7037                 3.6186                 2.7655
 IR Inten    --    181.0261               234.4901               144.1072
 Raman Activ --      9.3684                 5.5019                23.4515

                     16                     17                     18
                      A                      A                      A
 Frequencies --   1095.9278              1222.8862              1280.9345
 Red. masses --      1.5724                 1.3533                 6.7516
 Frc consts  --      1.1127                 1.1924                 6.5270
 IR Inten    --     11.1357                 4.8166               427.3360
 Raman Activ --      3.4985                 1.1967                20.3582

                     19                     20                     21
                      A                      A                      A
 Frequencies --   1325.0992              1348.3687              1387.8309
 Red. masses --      1.1311                 1.2073                 1.2369
 Frc consts  --      1.1702                 1.2932                 1.4036
 IR Inten    --     16.8559                34.6587                25.5842
 Raman Activ --     16.0624                12.2849                 1.9682

                     22                     23                     24
                      A                      A                      A
 Frequencies --   1424.4446              1473.9729              1505.6025
 Red. masses --      1.3594                 1.0957                 1.0861
 Frc consts  --      1.6251                 1.4026                 1.4505
 IR Inten    --     17.8947                27.2646                 4.5826
 Raman Activ --      3.1288                20.5481                 5.7309

                     25                     26                     27
                      A                      A                      A
 Frequencies --   1675.1820              3032.9202              3042.6715
 Red. masses --     12.3031                 1.0609                 1.0567
 Frc consts  --     20.3418                 5.7497                 5.7640
 IR Inten    --   1241.8160                17.5683               121.2309
 Raman Activ --      7.2814               370.1152               112.4115

                     28                     29                     30
                      A                      A                      A
 Frequencies --   3080.3476              3103.1849              3819.8762
 Red. masses --      1.1030                 1.1088                 1.0665
 Frc consts  --      6.1664                 6.2911                 9.1691
 IR Inten    --      2.4847                80.7953                52.4535
 Raman Activ --    254.5074                27.6544               120.7746

 - Thermochemistry -
 -------------------
 Temperature   298.150 Kelvin.  Pressure   1.00000 Atm.
 Thermochemistry will use frequencies scaled by 0.9670.

 Molecular mass:   105.01878 amu.
 Principal axes and moments of inertia in atomic units:
                           1         2         3
     Eigenvalues --   248.458481343.066261451.71070
           X            0.70588   0.48333  -0.51781
           Y            0.69042  -0.30609   0.65547
           Z           -0.15832   0.82018   0.54976
 This molecule is an asymmetric top.
 Rotational symmetry number  1.
 Rotational temperatures (Kelvin)      0.34861     0.06449     0.05966
 Rotational constants (GHZ):           7.26375     1.34375     1.24318
 Zero-point vibrational energy     221535.1 (Joules/Mol)
                                   52.94817 (Kcal/Mol)
 Warning -- explicit consideration of   8 degrees of freedom as
           vibrations may cause significant error
 Vibrational temperatures:    103.20   114.71   153.97   405.35   436.65
          (Kelvin)            460.04   562.72   865.38   928.48  1107.37
                             1127.73  1168.08  1416.99  1460.15  1490.83
                             1524.76  1701.40  1782.16  1843.61  1875.98
                             1930.89  1981.83  2050.73  2094.74  2330.68
                             4219.69  4233.26  4285.68  4317.45  5314.58

 Zero-point correction=                           0.084378 (Hartree/Particle)
 Thermal correction to Energy=                    0.091835
 Thermal correction to Enthalpy=                  0.092779
 Thermal correction to Gibbs Free Energy=         0.051858
 Sum of electronic and zero-point Energies=           -418.455934
 Sum of electronic and thermal Energies=              -418.448477
 Sum of electronic and thermal Enthalpies=            -418.447533
 Sum of electronic and thermal Free Energies=         -418.488454

                     E (Thermal)             CV                S
                      KCal/Mol        Cal/Mol-Kelvin    Cal/Mol-Kelvin
 Total                   57.627             24.902             86.126
 Electronic               0.000              0.000              0.000
 Translational            0.889              2.981             39.864
 Rotational               0.889              2.981             27.673
 Vibrational             55.850             18.940             18.588
 Vibration     1          0.598              1.967              4.105
 Vibration     2          0.600              1.963              3.897
 Vibration     3          0.606              1.944              3.322
 Vibration     4          0.681              1.707              1.523
 Vibration     5          0.695              1.667              1.398
 Vibration     6          0.706              1.636              1.311
 Vibration     7          0.759              1.489              0.996
 Vibration     8          0.960              1.029              0.447

 Optimization completed.
    -- Stationary point found.
 Normal termination of Gaussian 16 at Fri Jun  2 11:45:38 2023.
