 Gaussian 16, Revision C.01,
 Gaussian 16:  ES64L-G16RevC.01  3-Jul-2019

 ----------------------------------------------------------------------
 #p freq=raman scale=0.967 pop=(nbo,full,hirshfeld) guess=read geom=all
 check b3lyp/6-311+G(d,p) int=grid=ultrafine EmpiricalDispersion=GD3BJ
 SCRF=(Solvent=ethanol) scf=(xqc,intrep,maxconventionalcycle=350) nosym
 m
 ----------------------------------------------------------------------

 Structure from the checkpoint file:  "/scratch1/svicchi/G09-659760.pbs02/02-freq/123triz-isolated-freq.chk"
 --------------------
 123triz-isolated.gjf
 --------------------
 Charge = -1 Multiplicity = 1

                          Input orientation:
 ---------------------------------------------------------------------
 Center     Atomic      Atomic             Coordinates (Angstroms)
 Number     Number       Type             X           Y           Z
 ---------------------------------------------------------------------
      1          6           0       -3.702687    0.594784    0.000000
      2          6           0       -3.793682   -0.790999   -0.000000
      3          7           0       -2.388639    0.918059    0.000000
      4          7           0       -1.699431   -0.232581    0.000000
      5          7           0       -2.533232   -1.283252   -0.000000
      6          1           0       -4.477260    1.347368   -0.000000
      7          1           0       -4.659769   -1.436158    0.000000
 ---------------------------------------------------------------------

 SCF Done:  E(RB3LYP) =  -241.840863479     A.U. after    1 cycles

 Alpha  occ. eigenvalues --  -14.31413 -14.29342 -14.29338 -10.15825 -10.15769
 Alpha  occ. eigenvalues --   -1.02529  -0.82070  -0.74598  -0.56777  -0.54276
 Alpha  occ. eigenvalues --   -0.47079  -0.40811  -0.40674  -0.31039  -0.24708
 Alpha  occ. eigenvalues --   -0.24704  -0.24384  -0.22317
 Alpha virt. eigenvalues --    0.02165   0.03863   0.04292   0.05229   0.06050
 Alpha virt. eigenvalues --    0.06791   0.07686   0.08688   0.09638   0.11704
 Alpha virt. eigenvalues --    0.13845   0.14294   0.16620   0.16870   0.20116

 Mulliken charges:
               1
     1  C   -0.218300
     2  C   -0.218125
     3  N   -0.308082
     4  N   -0.191464
     5  N   -0.308053
     6  H    0.122022
     7  H    0.122003
 Sum of Mulliken charges =  -1.00000

 Dipole moment (field-independent basis, Debye):
    X=              8.4367    Y=              1.0993    Z=             -0.0000  Tot=              8.5080
 Quadrupole moment (field-independent basis, Debye-Ang):
   XX=            -45.4979   YY=            -40.3854   ZZ=            -33.3275
   XY=             -2.5522   XZ=              0.0000   YZ=              0.0000

  Exact polarizability:      76.788       0.035      77.430      -0.000      -0.000      45.387
 Approx polarizability:      90.233      -0.003      90.196      -0.000      -0.000      49.032

 Summary of Natural Population Analysis:

                                       Natural Population
                Natural  -----------------------------------------------
    Atom  No    Charge         Core      Valence    Rydberg      Total
 -----------------------------------------------------------------------
      C    1   -0.15840      1.99926     4.12739    0.03176     6.15840
      C    2   -0.15833      1.99926     4.12732    0.03176     6.15833
      N    3   -0.41709      1.99952     5.37716    0.04041     7.41709
      N    4   -0.24463      1.99964     5.19259    0.05240     7.24463
      N    5   -0.41717      1.99952     5.37723    0.04042     7.41717
      H    6    0.19781      0.00000     0.80068    0.00152     0.80219
      H    7    0.19782      0.00000     0.80066    0.00152     0.80218
 =======================================================================
   * Total *   -1.00000      9.99719    25.80303    0.19978    36.00000

                      1                      2                      3
                      A                      A                      A
 Frequencies --    672.4412               735.9424               782.8043
 Red. masses --      4.1583                13.6973                 1.1795
 Frc consts  --      1.1078                 4.3709                 0.4259
 IR Inten    --      0.0008                 0.3674                99.7063
 Raman Activ --      0.1841                 0.4112                 7.9924

                      4                      5                      6
                      A                      A                      A
 Frequencies --    836.3547               965.6505               971.2587
 Red. masses --      1.3165                 3.2680                 7.7962
 Frc consts  --      0.5426                 1.7954                 4.3332
 IR Inten    --      0.0691                 8.7325                10.8072
 Raman Activ --      6.1841                 5.3689                 3.8012

                      7                      8                      9
                      A                      A                      A
 Frequencies --   1058.9374              1094.0222              1162.3674
 Red. masses --      3.6991                 1.7116                 8.7952
 Frc consts  --      2.4439                 1.2070                 7.0014
 IR Inten    --     79.4009                10.8278                17.6605
 Raman Activ --      3.4877                 3.2038                60.0034

                     10                     11                     12
                      A                      A                      A
 Frequencies --   1164.9876              1219.7752              1420.6201
 Red. masses --      2.3745                 9.7041                 3.0149
 Frc consts  --      1.8987                 8.5068                 3.5849
 IR Inten    --      1.6998                 1.7335                14.4402
 Raman Activ --      9.7301                59.4443                 4.0319

                     13                     14                     15
                      A                      A                      A
 Frequencies --   1453.6906              3214.7624              3235.0422
 Red. masses --      3.6644                 1.0894                 1.1047
 Frc consts  --      4.5625                 6.6333                 6.8119
 IR Inten    --      0.3071                10.4789                25.5991
 Raman Activ --     43.3400               167.2555               247.6078

 - Thermochemistry -
 -------------------
 Temperature   298.150 Kelvin.  Pressure   1.00000 Atm.
 Thermochemistry will use frequencies scaled by 0.9670.

 Molecular mass:    68.02487 amu.
 Principal axes and moments of inertia in atomic units:
                           1         2         3
     Eigenvalues --   172.26809 177.00842 349.27651
           X            0.06712   0.99774  -0.00000
           Y            0.99774  -0.06712  -0.00000
           Z            0.00000   0.00000   1.00000
 This molecule is an asymmetric top.
 Rotational symmetry number  1.
 Rotational temperatures (Kelvin)      0.50279     0.48932     0.24798
 Rotational constants (GHZ):          10.47635    10.19579     5.16708
 Zero-point vibrational energy     115613.3 (Joules/Mol)
                                   27.63224 (Kcal/Mol)
 Vibrational temperatures:    935.57  1023.91  1089.11  1163.62  1343.51
          (Kelvin)           1351.31  1473.30  1522.11  1617.20  1620.84
                             1697.07  1976.50  2022.52  4472.69  4500.91

 Zero-point correction=                           0.044035 (Hartree/Particle)
 Thermal correction to Energy=                    0.047513
 Thermal correction to Enthalpy=                  0.048457
 Thermal correction to Gibbs Free Energy=         0.017976
 Sum of electronic and zero-point Energies=           -241.796829
 Sum of electronic and thermal Energies=              -241.793350
 Sum of electronic and thermal Enthalpies=            -241.792406
 Sum of electronic and thermal Free Energies=         -241.822888

                     E (Thermal)             CV                S
                      KCal/Mol        Cal/Mol-Kelvin    Cal/Mol-Kelvin
 Total                   29.815             11.587             64.154
 Electronic               0.000              0.000              0.000
 Translational            0.889              2.981             38.570
 Rotational               0.889              2.981             23.880
 Vibrational             28.038              5.625              1.704

 Optimization completed.
    -- Stationary point found.
 Normal termination of Gaussian 16 at Fri Jun  2 11:11:43 2023.
