 Gaussian 16, Revision C.02,
 Gaussian 16:  ES64L-G16RevC.02  7-Dec-2021

 ----------------------------------------------------------------------
 #p freq=raman scale=0.967 guess=read geom=allcheck b3lyp/6-311+G(d,p)
 int=grid=ultrafine EmpiricalDispersion=GD3BJ SCRF=(Solvent=ethanol) sc
 f=(xqc,intrep,maxconventionalcycle=350) nosymm
 ----------------------------------------------------------------------

 Structure from the checkpoint file:  "/scratch1/svicchi/G09-1734037.pbs02/02-freq/PyrCHO-CO2_binding-site_index-5-freq.chk"
 -------------------------------
 PyrCHO-CO2_binding-site_index-5
 -------------------------------
 Charge = -1 Multiplicity = 1

                          Input orientation:
 ---------------------------------------------------------------------
 Center     Atomic      Atomic             Coordinates (Angstroms)
 Number     Number       Type             X           Y           Z
 ---------------------------------------------------------------------
      1          6           0       -0.386273    0.725650    0.217770
      2          6           0       -1.143244   -0.301980   -0.326188
      3          6           0       -0.250370   -1.337872   -0.655851
      4          1           0       -2.213425   -0.292125   -0.463801
      5          6           0        1.036645   -0.924399   -0.308956
      6          7           0        0.927159    0.364123    0.234116
      7          1           0       -0.676073    1.692461    0.591901
      8          6           0        2.253123   -1.695486   -0.438634
      9          1           0       -0.487386   -2.296531   -1.090689
     10          8           0        2.282110   -2.823300   -0.936172
     11          1           0        3.166363   -1.219152   -0.063904
     12          6           0        2.003833    1.285375    0.741212
     13          8           0        1.565693    2.328590    1.246295
     14          8           0        3.162982    0.877358    0.580081
 ---------------------------------------------------------------------

 SCF Done:  E(RB3LYP) =  -511.810176922     A.U. after    1 cycles

 Alpha  occ. eigenvalues --  -19.10596 -19.07263 -19.07240 -14.36239 -10.29446
 Alpha  occ. eigenvalues --  -10.24678 -10.20125 -10.19839 -10.17294 -10.16637
 Alpha  occ. eigenvalues --   -1.05697  -1.02996  -0.97066  -0.96343  -0.78407
 Alpha  occ. eigenvalues --   -0.74669  -0.63398  -0.60795  -0.57655  -0.52136
 Alpha  occ. eigenvalues --   -0.48008  -0.45757  -0.45031  -0.44080  -0.43072
 Alpha  occ. eigenvalues --   -0.41618  -0.39761  -0.39463  -0.38656  -0.36851
 Alpha  occ. eigenvalues --   -0.28022  -0.26821  -0.26308  -0.25822  -0.24171
 Alpha  occ. eigenvalues --   -0.22900
 Alpha virt. eigenvalues --   -0.05965   0.01245   0.02296   0.02872   0.03097
 Alpha virt. eigenvalues --    0.04524   0.04968   0.05384   0.05756   0.07280
 Alpha virt. eigenvalues --    0.07928   0.08289   0.08638   0.09190   0.10669

 Mulliken charges:
               1
     1  C    0.057773
     2  C   -0.407825
     3  C    0.084642
     4  H    0.140725
     5  C    0.082344
     6  N   -0.036562
     7  H    0.163100
     8  C   -0.305401
     9  H    0.141735
    10  O   -0.424721
    11  H    0.159377
    12  C    0.410973
    13  O   -0.525368
    14  O   -0.540792
 Sum of Mulliken charges =  -1.00000

 Dipole moment (field-independent basis, Debye):
    X=            -12.3887    Y=             -1.6122    Z=             -1.8881  Tot=             12.6351
 Quadrupole moment (field-independent basis, Debye-Ang):
   XX=            -90.7078   YY=            -89.6520   ZZ=            -66.5935
   XY=             -3.4395   XZ=             -3.5881   YZ=            -13.2984

  Exact polarizability:     154.417     -21.829     145.147       0.986      31.248      82.012
 Approx polarizability:     181.207     -34.415     169.901      -2.666      37.157      93.163

                      1                      2                      3
                      A                      A                      A
 Frequencies --     24.9645               113.9662               159.3508
 Red. masses --     10.9833                 3.8486                 4.8260
 Frc consts  --      0.0040                 0.0295                 0.0722
 IR Inten    --      0.2960                29.6992                 0.2342
 Raman Activ --      1.2477                 6.3158                 2.2564

                      4                      5                      6
                      A                      A                      A
 Frequencies --    202.9134               237.4005               258.9984
 Red. masses --      9.1688                 3.4273                 6.1598
 Frc consts  --      0.2224                 0.1138                 0.2434
 IR Inten    --      9.1642                10.5417                 5.5549
 Raman Activ --      0.9047                 1.1266                 2.5743

                      7                      8                      9
                      A                      A                      A
 Frequencies --    391.8734               426.1157               610.8204
 Red. masses --      9.3710                12.3081                 3.8229
 Frc consts  --      0.8479                 1.3167                 0.8404
 IR Inten    --     13.4729                 5.6199                12.8634
 Raman Activ --      8.5739                10.5347                 1.7417

                     10                     11                     12
                      A                      A                      A
 Frequencies --    618.6558               636.3711               745.1806
 Red. masses --      4.3229                 4.6752                 9.3399
 Frc consts  --      0.9748                 1.1155                 3.0557
 IR Inten    --     21.1955                 7.7904               245.6835
 Raman Activ --      3.3838                 1.1756                17.3105

                     13                     14                     15
                      A                      A                      A
 Frequencies --    763.1140               790.6576               794.9316
 Red. masses --      1.2228                 7.9136                 5.8263
 Frc consts  --      0.4195                 2.9148                 2.1692
 IR Inten    --    120.0174                29.4167               280.1300
 Raman Activ --     16.8198                 3.6477                33.1316

                     16                     17                     18
                      A                      A                      A
 Frequencies --    862.2811               911.6513               914.9091
 Red. masses --      1.4486                 4.6652                 1.3680
 Frc consts  --      0.6346                 2.2844                 0.6747
 IR Inten    --      3.2956                19.9479                 2.1121
 Raman Activ --      4.6640                30.5425                 1.4645

                     19                     20                     21
                      A                      A                      A
 Frequencies --   1024.5087              1035.9261              1063.8494
 Red. masses --      1.4438                 1.7040                 1.4845
 Frc consts  --      0.8928                 1.0774                 0.9899
 IR Inten    --     49.5400                 0.8858               212.3241
 Raman Activ --      5.2234                 1.8526                 9.9329

                     22                     23                     24
                      A                      A                      A
 Frequencies --   1147.0284              1194.3967              1265.0862
 Red. masses --      2.8926                 2.7093                 2.6895
 Frc consts  --      2.2423                 2.2772                 2.5361
 IR Inten    --     19.2275               502.9066               503.3333
 Raman Activ --     72.6840                65.3235                64.2447

                     25                     26                     27
                      A                      A                      A
 Frequencies --   1321.2393              1330.2334              1411.6942
 Red. masses --      4.0573                 3.6094                 2.3213
 Frc consts  --      4.1731                 3.7631                 2.7256
 IR Inten    --    223.6284               113.1664               168.5835
 Raman Activ --     14.1912                83.6643               273.8128

                     28                     29                     30
                      A                      A                      A
 Frequencies --   1438.8673              1462.9696              1548.2615
 Red. masses --      3.5750                 3.5253                 5.0008
 Frc consts  --      4.3609                 4.4455                 7.0629
 IR Inten    --    243.1946               135.5777               197.5337
 Raman Activ --    478.8348                47.8289                20.7079

                     31                     32                     33
                      A                      A                      A
 Frequencies --   1658.1863              1721.9452              3050.0653
 Red. masses --      7.3395                11.8090                 1.0873
 Frc consts  --     11.8900                20.6301                 5.9597
 IR Inten    --    495.8127              1170.6296                37.1320
 Raman Activ --    431.4837                13.7243               195.9152

                     34                     35                     36
                      A                      A                      A
 Frequencies --   3231.1056              3246.1125              3274.9980
 Red. masses --      1.0910                 1.0995                 1.0994
 Frc consts  --      6.7107                 6.8261                 6.9475
 IR Inten    --      6.1914                 4.3985                 4.5104
 Raman Activ --    182.3265               244.0702               226.3603

 - Thermochemistry -
 -------------------
 Temperature   298.150 Kelvin.  Pressure   1.00000 Atm.
 Thermochemistry will use frequencies scaled by 0.9670.

 Molecular mass:   138.01912 amu.
 Principal axes and moments of inertia in atomic units:
                           1         2         3
     Eigenvalues --   894.297411396.654112287.75278
           X            0.08907   0.99037  -0.10596
           Y            0.91271  -0.12374  -0.38942
           Z            0.39878   0.06202   0.91495
 This molecule is an asymmetric top.
 Rotational symmetry number  1.
 Warning -- assumption of classical behavior for rotation
           may cause significant error
 Rotational temperatures (Kelvin)      0.09685     0.06202     0.03786
 Rotational constants (GHZ):           2.01805     1.29219     0.78887
 Zero-point vibrational energy     236509.1 (Joules/Mol)
                                   56.52704 (Kcal/Mol)
 Warning -- explicit consideration of  11 degrees of freedom as
           vibrations may cause significant error
 Vibrational temperatures:     34.73   158.56   221.70   282.31   330.29
          (Kelvin)            360.34   545.21   592.85   849.83   860.73
                              885.38  1036.77  1061.72  1100.04  1105.99
                             1199.69  1268.38  1272.91  1425.40  1441.28
                             1480.13  1595.86  1661.76  1760.11  1838.24
                             1850.75  1964.09  2001.89  2035.43  2154.09
                             2307.03  2395.74  4243.55  4495.43  4516.31
                             4556.50

 Zero-point correction=                           0.090082 (Hartree/Particle)
 Thermal correction to Energy=                    0.098620
 Thermal correction to Enthalpy=                  0.099564
 Thermal correction to Gibbs Free Energy=         0.055184
 Sum of electronic and zero-point Energies=           -511.720095
 Sum of electronic and thermal Energies=              -511.711557
 Sum of electronic and thermal Enthalpies=            -511.710613
 Sum of electronic and thermal Free Energies=         -511.754993

                     E (Thermal)             CV                S
                      KCal/Mol        Cal/Mol-Kelvin    Cal/Mol-Kelvin
 Total                   61.885             30.462             93.406
 Electronic               0.000              0.000              0.000
 Translational            0.889              2.981             40.678
 Rotational               0.889              2.981             29.437
 Vibrational             60.107             24.500             23.291
 Vibration     1          0.593              1.985              6.261
 Vibration     2          0.606              1.941              3.265
 Vibration     3          0.620              1.898              2.621
 Vibration     4          0.636              1.845              2.168
 Vibration     5          0.652              1.796              1.882
 Vibration     6          0.663              1.762              1.727
 Vibration     7          0.749              1.515              1.043
 Vibration     8          0.776              1.444              0.919
 Vibration     9          0.948              1.052              0.466
 Vibration    10          0.956              1.036              0.453
 Vibration    11          0.975              0.999              0.424

 Optimization completed.
    -- Stationary point found.
 Normal termination of Gaussian 16 at Thu Dec 14 12:49:43 2023.
