 Gaussian 16, Revision C.02,
 Gaussian 16:  ES64L-G16RevC.02  7-Dec-2021

 ----------------------------------------------------------------------
 #p freq=raman scale=0.967 guess=read geom=allcheck b3lyp/6-311+G(d,p)
 int=grid=ultrafine EmpiricalDispersion=GD3BJ SCRF=(Solvent=ethanol) sc
 f=(xqc,intrep,maxconventionalcycle=350) nosymm
 ----------------------------------------------------------------------

 Structure from the checkpoint file:  "/scratch1/svicchi/G09-1868877.pbs02/02-freq/IMIDOH-isolated-freq.chk"
 ---------------
 IMIDOH-isolated
 ---------------
 Charge = -1 Multiplicity = 1

                          Input orientation:
 ---------------------------------------------------------------------
 Center     Atomic      Atomic             Coordinates (Angstroms)
 Number     Number       Type             X           Y           Z
 ---------------------------------------------------------------------
      1          6           0       -2.417774    3.510338    0.156529
      2          7           0       -1.320337    2.797075   -0.112982
      3          6           0       -1.849407    1.575158   -0.506617
      4          6           0       -3.227432    1.645871   -0.443714
      5          1           0       -1.214090    0.750568   -0.800797
      6          7           0       -3.597348    2.912291   -0.010136
      7          1           0       -3.965770    0.889896   -0.675434
      8          8           0       -2.350112    4.816320    0.591279
      9          1           0       -1.413130    5.041074    0.636893
 ---------------------------------------------------------------------

 SCF Done:  E(RB3LYP) =  -301.073810730     A.U. after    1 cycles

 Alpha  occ. eigenvalues --  -19.13333 -14.25931 -14.25763 -10.22428 -10.14793
 Alpha  occ. eigenvalues --  -10.14726  -1.04808  -0.94027  -0.80314  -0.68287
 Alpha  occ. eigenvalues --   -0.57212  -0.54170  -0.46836  -0.43809  -0.41138
 Alpha  occ. eigenvalues --   -0.39350  -0.35348  -0.32319  -0.27926  -0.23977
 Alpha  occ. eigenvalues --   -0.23053  -0.17552
 Alpha virt. eigenvalues --    0.01270   0.02711   0.04223   0.05577   0.06291
 Alpha virt. eigenvalues --    0.06294   0.07121   0.08499   0.08905   0.10796
 Alpha virt. eigenvalues --    0.10881   0.11890   0.13924   0.15229   0.15747

 Mulliken charges:
               1
     1  C    0.184714
     2  N   -0.430120
     3  C   -0.219553
     4  C   -0.180185
     5  H    0.100634
     6  N   -0.446393
     7  H    0.100455
     8  O   -0.395507
     9  H    0.285955
 Sum of Mulliken charges =  -1.00000

 Dipole moment (field-independent basis, Debye):
    X=             13.5986    Y=            -14.3036    Z=              0.0408  Tot=             19.7361
 Quadrupole moment (field-independent basis, Debye-Ang):
   XX=            -84.9205   YY=            -81.9381   ZZ=            -40.5422
   XY=             45.1083   XZ=              1.5805   YZ=              0.3931

  Exact polarizability:      91.546       1.346      85.338      -0.540       9.526      59.899
 Approx polarizability:     104.414       0.737      92.616      -1.035      11.082      63.124

                      1                      2                      3
                      A                      A                      A
 Frequencies --    307.7481               320.5237               444.2540
 Red. masses --      1.7847                 1.9892                 4.4341
 Frc consts  --      0.0996                 0.1204                 0.5156
 IR Inten    --    102.9832                72.9271                27.8985
 Raman Activ --      0.4718                 3.1600                 3.3870

                      4                      5                      6
                      A                      A                      A
 Frequencies --    653.2128               707.0858               714.9614
 Red. masses --      4.1067                 9.5643                 1.3073
 Frc consts  --      1.0324                 2.8174                 0.3937
 IR Inten    --      0.5074                16.8207               147.2709
 Raman Activ --      0.2266                13.7173                31.6197

                      7                      8                      9
                      A                      A                      A
 Frequencies --    745.2393               795.8816               943.0099
 Red. masses --      6.5983                 1.3063                 8.1007
 Frc consts  --      2.1591                 0.4875                 4.2443
 IR Inten    --      0.2882                 0.1547                 9.9670
 Raman Activ --      0.1149                27.9084                 1.8919

                     10                     11                     12
                      A                      A                      A
 Frequencies --   1001.3805              1106.6429              1115.7025
 Red. masses --      2.9961                 1.8245                 1.8759
 Frc consts  --      1.7701                 1.3165                 1.3758
 IR Inten    --     28.8640               131.8682                 9.4447
 Raman Activ --      3.6398                10.6712                43.4648

                     13                     14                     15
                      A                      A                      A
 Frequencies --   1188.0521              1193.7675              1320.8412
 Red. masses --      4.9175                 2.1645                 1.8558
 Frc consts  --      4.0895                 1.8174                 1.9076
 IR Inten    --      2.3624               149.4909                42.5694
 Raman Activ --     22.4660                11.1549                31.5271

                     16                     17                     18
                      A                      A                      A
 Frequencies --   1436.1795              1476.0472              1519.2531
 Red. masses --      9.4630                 3.8118                 3.7229
 Frc consts  --     11.4999                 4.8930                 5.0629
 IR Inten    --    460.3953                52.3670               152.7836
 Raman Activ --     64.4924               142.3144                21.4085

                     19                     20                     21
                      A                      A                      A
 Frequencies --   3185.7728              3208.4951              3816.9148
 Red. masses --      1.0869                 1.1035                 1.0652
 Frc consts  --      6.4996                 6.6932                 9.1431
 IR Inten    --     14.1911                57.3346                91.6612
 Raman Activ --    181.5176               250.5330               171.1177

 - Thermochemistry -
 -------------------
 Temperature   298.150 Kelvin.  Pressure   1.00000 Atm.
 Thermochemistry will use frequencies scaled by 0.9670.

 Molecular mass:    83.02454 amu.
 Principal axes and moments of inertia in atomic units:
                           1         2         3
     Eigenvalues --   187.65051 463.74702 651.39748
           X            0.07915   0.99650   0.02691
           Y            0.94611  -0.06659  -0.31692
           Z            0.31402  -0.05054   0.94807
 This molecule is an asymmetric top.
 Rotational symmetry number  1.
 Rotational temperatures (Kelvin)      0.46157     0.18677     0.13297
 Rotational constants (GHZ):           9.61757     3.89165     2.77057
 Zero-point vibrational energy     157328.9 (Joules/Mol)
                                   37.60250 (Kcal/Mol)
 Warning -- explicit consideration of   3 degrees of freedom as
           vibrations may cause significant error
 Vibrational temperatures:    428.17   445.94   618.09   908.81   983.77
          (Kelvin)            994.72  1036.85  1107.31  1312.01  1393.22
                             1539.67  1552.27  1652.93  1660.89  1837.68
                             1998.15  2053.62  2113.73  4432.36  4463.97
                             5310.46

 Zero-point correction=                           0.059923 (Hartree/Particle)
 Thermal correction to Energy=                    0.064661
 Thermal correction to Enthalpy=                  0.065605
 Thermal correction to Gibbs Free Energy=         0.032122
 Sum of electronic and zero-point Energies=           -301.013887
 Sum of electronic and thermal Energies=              -301.009150
 Sum of electronic and thermal Enthalpies=            -301.008205
 Sum of electronic and thermal Free Energies=         -301.041689

                     E (Thermal)             CV                S
                      KCal/Mol        Cal/Mol-Kelvin    Cal/Mol-Kelvin
 Total                   40.575             17.294             70.472
 Electronic               0.000              0.000              0.000
 Translational            0.889              2.981             39.163
 Rotational               0.889              2.981             25.542
 Vibrational             38.798             11.332              5.767
 Vibration     1          0.691              1.678              1.430
 Vibration     2          0.699              1.655              1.363
 Vibration     3          0.791              1.406              0.860

 Optimization completed.
    -- Stationary point found.
 Normal termination of Gaussian 16 at Thu Jan 11 15:21:04 2024.
