 Gaussian 16, Revision C.01,
 Gaussian 16:  ES64L-G16RevC.01  3-Jul-2019

 ----------------------------------------------------------------------
 #p freq=raman scale=0.967 pop=(nbo,full,hirshfeld) guess=read geom=all
 check b3lyp/6-311+G(d,p) int=grid=ultrafine EmpiricalDispersion=GD3BJ
 SCRF=(Solvent=ethanol) scf=(xqc,intrep,maxconventionalcycle=350) nosym
 m
 ----------------------------------------------------------------------

 Structure from the checkpoint file:  "/scratch1/svicchi/G09-659770.pbs02/02-freq/124triz-CO2_binding-site_index-3-freq.chk"
 ------------------------------------
 124triz-CO2_binding-site_index-3.gjf
 ------------------------------------
 Charge = -1 Multiplicity = 1

                          Input orientation:
 ---------------------------------------------------------------------
 Center     Atomic      Atomic             Coordinates (Angstroms)
 Number     Number       Type             X           Y           Z
 ---------------------------------------------------------------------
      1          6           0       -1.593939    1.415524   -0.000000
      2          7           0       -1.738229    0.056633    0.000000
      3          6           0       -0.481802   -0.366816    0.000000
      4          7           0        0.371053    0.679071    0.000000
      5          7           0       -0.342303    1.837236   -0.000000
      6          1           0       -0.142694   -1.388715    0.000000
      7          1           0       -2.428524    2.100829   -0.000000
      8          6           0        1.885760    0.614174   -0.000000
      9          8           0        2.301242   -0.552262   -0.000000
     10          8           0        2.447849    1.709868    0.000000
 ---------------------------------------------------------------------

 SCF Done:  E(RB3LYP) =  -430.532679670     A.U. after    3 cycles

 Alpha  occ. eigenvalues --  -19.07781 -19.07709 -14.38707 -14.33804 -14.30986
 Alpha  occ. eigenvalues --  -10.29810 -10.23490 -10.21970  -1.08514  -1.04293
 Alpha  occ. eigenvalues --   -0.97040  -0.89116  -0.82533  -0.64256  -0.61944
 Alpha  occ. eigenvalues --   -0.56912  -0.49131  -0.47415  -0.45174  -0.42738
 Alpha  occ. eigenvalues --   -0.42229  -0.40748  -0.33775  -0.29798  -0.29552
 Alpha  occ. eigenvalues --   -0.27600  -0.27575  -0.26611  -0.25448
 Alpha virt. eigenvalues --   -0.01786   0.01376   0.03027   0.03413   0.03991
 Alpha virt. eigenvalues --    0.05501   0.05859   0.06064   0.07247   0.08347
 Alpha virt. eigenvalues --    0.08929   0.10038   0.10736   0.11925   0.12446

 Mulliken charges:
               1
     1  C   -0.063853
     2  N   -0.293170
     3  C    0.046662
     4  N   -0.109076
     5  N   -0.258104
     6  H    0.167207
     7  H    0.151705
     8  C    0.374926
     9  O   -0.504546
    10  O   -0.511751
 Sum of Mulliken charges =  -1.00000

 Dipole moment (field-independent basis, Debye):
    X=             -7.9581    Y=             -4.1909    Z=              0.0000  Tot=              8.9942
 Quadrupole moment (field-independent basis, Debye-Ang):
   XX=            -78.2934   YY=            -60.3037   ZZ=            -46.9613
   XY=            -10.2142   XZ=              0.0000   YZ=             -0.0000

  Exact polarizability:     103.851       0.295      96.882       0.000       0.000      49.536
 Approx polarizability:     113.120       2.281     119.640       0.000       0.000      56.235

 Summary of Natural Population Analysis:

                                       Natural Population
                Natural  -----------------------------------------------
    Atom  No    Charge         Core      Valence    Rydberg      Total
 -----------------------------------------------------------------------
      C    1    0.15845      1.99946     3.80276    0.03934     5.84155
      N    2   -0.56808      1.99948     5.54622    0.02238     7.56808
      C    3    0.22637      1.99934     3.74196    0.03233     5.77363
      N    4   -0.30682      1.99924     5.26923    0.03835     7.30682
      N    5   -0.32614      1.99945     5.30347    0.02321     7.32614
      H    6    0.22287      0.00000     0.77556    0.00157     0.77713
      H    7    0.19941      0.00000     0.79934    0.00125     0.80059
      C    8    0.91597      1.99960     3.02391    0.06051     5.08403
      O    9   -0.77184      1.99976     6.75952    0.01257     8.77184
      O   10   -0.75020      1.99975     6.73769    0.01276     8.75020
 =======================================================================
   * Total *   -1.00000     15.99607    41.75965    0.24428    58.00000

                      1                      2                      3
                      A                      A                      A
 Frequencies --     86.8734               165.2850               231.7028
 Red. masses --      8.4947                 8.1074                 8.3904
 Frc consts  --      0.0378                 0.1305                 0.2654
 IR Inten    --      0.4407                 7.1972                 1.9825
 Raman Activ --      0.0746                 2.6266                 0.4580

                      4                      5                      6
                      A                      A                      A
 Frequencies --    388.3908               538.6821               645.8524
 Red. masses --     11.5481                 9.7449                 4.2465
 Frc consts  --      1.0264                 1.6661                 1.0436
 IR Inten    --     20.2518                 0.6178                 3.2875
 Raman Activ --      6.1765                 3.3877                 0.8936

                      7                      8                      9
                      A                      A                      A
 Frequencies --    691.8352               746.7198               791.6872
 Red. masses --      3.5733                13.7751                11.2006
 Frc consts  --      1.0077                 4.5254                 4.1362
 IR Inten    --     42.5879               459.2010                38.6734
 Raman Activ --      0.3608                 3.9335                 1.8882

                     10                     11                     12
                      A                      A                      A
 Frequencies --    889.1166               895.7627               972.8165
 Red. masses --      1.4479                 1.3937                 6.5595
 Frc consts  --      0.6744                 0.6589                 3.6575
 IR Inten    --     28.7434                 0.9458                 7.9959
 Raman Activ --      1.3637                 1.2075                 4.2647

                     13                     14                     15
                      A                      A                      A
 Frequencies --   1024.7056              1119.3987              1175.5781
 Red. masses --      5.3876                 2.1532                 2.8513
 Frc consts  --      3.3331                 1.5896                 2.3216
 IR Inten    --     54.6737               232.9561               165.3697
 Raman Activ --     26.3644                 4.5759                36.5340

                     16                     17                     18
                      A                      A                      A
 Frequencies --   1239.2821              1282.7313              1299.2286
 Red. masses --      2.6513                 8.2158                 2.7882
 Frc consts  --      2.3991                 7.9647                 2.7730
 IR Inten    --      6.2745               606.6656                70.0705
 Raman Activ --      5.0357                27.1905                38.0568

                     19                     20                     21
                      A                      A                      A
 Frequencies --   1362.8455              1417.2216              1527.9295
 Red. masses --      8.7696                 4.7526                 4.0461
 Frc consts  --      9.5967                 5.6242                 5.5654
 IR Inten    --      7.5295                 1.5230                77.3034
 Raman Activ --     70.2675                33.4438                 2.4290

                     22                     23                     24
                      A                      A                      A
 Frequencies --   1751.7329              3238.4037              3278.7362
 Red. masses --     12.8577                 1.0973                 1.0993
 Frc consts  --     23.2461                 6.7800                 6.9625
 IR Inten    --   1150.0396                 8.0849                 2.1521
 Raman Activ --     17.1691               197.7458               135.6316

 - Thermochemistry -
 -------------------
 Temperature   298.150 Kelvin.  Pressure   1.00000 Atm.
 Thermochemistry will use frequencies scaled by 0.9670.

 Molecular mass:   112.01470 amu.
 Principal axes and moments of inertia in atomic units:
                           1         2         3
     Eigenvalues --   325.608761031.273951356.88271
           X            0.99924   0.03899   0.00000
           Y           -0.03899   0.99924  -0.00000
           Z           -0.00000   0.00000   1.00000
 This molecule is an asymmetric top.
 Rotational symmetry number  1.
 Rotational temperatures (Kelvin)      0.26601     0.08399     0.06383
 Rotational constants (GHZ):           5.54267     1.75001     1.33006
 Zero-point vibrational energy     154792.9 (Joules/Mol)
                                   36.99640 (Kcal/Mol)
 Warning -- explicit consideration of   5 degrees of freedom as
           vibrations may cause significant error
 Vibrational temperatures:    120.87   229.96   322.37   540.37   749.47
          (Kelvin)            898.57   962.55  1038.91  1101.47  1237.03
                             1246.27  1353.48  1425.67  1557.42  1635.58
                             1724.21  1784.66  1807.61  1896.12  1971.78
                             2125.80  2437.18  4505.58  4561.70

 Zero-point correction=                           0.058958 (Hartree/Particle)
 Thermal correction to Energy=                    0.065043
 Thermal correction to Enthalpy=                  0.065987
 Thermal correction to Gibbs Free Energy=         0.028113
 Sum of electronic and zero-point Energies=           -430.473722
 Sum of electronic and thermal Energies=              -430.467637
 Sum of electronic and thermal Enthalpies=            -430.466693
 Sum of electronic and thermal Free Energies=         -430.504567

                     E (Thermal)             CV                S
                      KCal/Mol        Cal/Mol-Kelvin    Cal/Mol-Kelvin
 Total                   40.815             21.127             79.712
 Electronic               0.000              0.000              0.000
 Translational            0.889              2.981             40.056
 Rotational               0.889              2.981             27.613
 Vibrational             39.037             15.165             12.043
 Vibration     1          0.601              1.960              3.795
 Vibration     2          0.622              1.892              2.552
 Vibration     3          0.649              1.804              1.926
 Vibration     4          0.746              1.522              1.057
 Vibration     5          0.876              1.204              0.608

 Optimization completed.
    -- Stationary point found.
 Normal termination of Gaussian 16 at Fri Jun  2 11:37:28 2023.
