 Gaussian 16, Revision C.01,
 Gaussian 16:  ES64L-G16RevC.01  3-Jul-2019

 ----------------------------------------------------------------------
 #p freq=raman scale=0.967 pop=(nbo,full,hirshfeld) guess=read geom=all
 check b3lyp/6-311+G(d,p) int=grid=ultrafine EmpiricalDispersion=GD3BJ
 SCRF=(Solvent=ethanol) scf=(xqc,intrep,maxconventionalcycle=350) nosym
 m
 ----------------------------------------------------------------------

 Structure from the checkpoint file:  "/scratch1/svicchi/G09-659729.pbs02/02-freq/EMIM-CO2_binding-site_index-2-freq.chk"
 ---------------------------------
 EMIM-CO2_binding-site_index-2.gjf
 ---------------------------------
 Charge =  0 Multiplicity = 1

                          Input orientation:
 ---------------------------------------------------------------------
 Center     Atomic      Atomic             Coordinates (Angstroms)
 Number     Number       Type             X           Y           Z
 ---------------------------------------------------------------------
      1          6           0        1.190012   -0.258946    0.292706
      2          7           0        0.719236   -1.580744   -0.166266
      3          6           0        1.100291   -2.787410    0.298543
      4          7           0        0.430708   -3.715286   -0.414812
      5          6           0        0.566243   -5.172829   -0.305630
      6          6           0       -0.369324   -3.087329   -1.348758
      7          6           0       -0.195171   -1.749938   -1.186909
      8          6           0        2.304917    0.275593   -0.596687
      9          1           0        1.529787   -0.372821    1.317479
     10          1           0        0.319477    0.397269    0.281694
     11          1           0        0.927463   -5.408424    0.689768
     12          1           0        1.267875   -5.529219   -1.059955
     13          1           0       -0.411855   -5.619760   -0.471778
     14          1           0       -0.985442   -3.642157   -2.034062
     15          1           0       -0.645290   -0.913506   -1.691815
     16          1           0        3.164735   -0.393887   -0.561997
     17          1           0        2.612852    1.259612   -0.236584
     18          1           0        1.970484    0.379550   -1.631320
     19          6           0        2.100538   -3.043011    1.436637
     20          8           0        1.830133   -4.016323    2.168067
     21          8           0        3.049914   -2.237929    1.482266
 ---------------------------------------------------------------------

 SCF Done:  E(RB3LYP) =  -532.931868200     A.U. after    1 cycles

 Alpha  occ. eigenvalues --  -19.08436 -19.08422 -14.41530 -14.41271 -10.28872
 Alpha  occ. eigenvalues --  -10.28000 -10.23585 -10.23514 -10.22793 -10.21937
 Alpha  occ. eigenvalues --  -10.17099  -1.08617  -1.04946  -0.97408  -0.96027
 Alpha  occ. eigenvalues --   -0.81685  -0.79161  -0.74157  -0.67239  -0.64872
 Alpha  occ. eigenvalues --   -0.63690  -0.57413  -0.52711  -0.51414  -0.49619
 Alpha  occ. eigenvalues --   -0.48101  -0.47397  -0.46088  -0.45153  -0.44847
 Alpha  occ. eigenvalues --   -0.43046  -0.41852  -0.41328  -0.39849  -0.38885
 Alpha  occ. eigenvalues --   -0.36835  -0.31800  -0.28414  -0.27462  -0.27195
 Alpha  occ. eigenvalues --   -0.25622
 Alpha virt. eigenvalues --   -0.04756  -0.00734   0.00277   0.01623   0.02294
 Alpha virt. eigenvalues --    0.02554   0.03894   0.04212   0.04398   0.04845
 Alpha virt. eigenvalues --    0.05992   0.06227   0.06821   0.07129   0.07810

 Mulliken charges:
               1
     1  C   -0.222856
     2  N    0.092444
     3  C   -0.066386
     4  N    0.041629
     5  C   -0.238003
     6  C   -0.036513
     7  C   -0.091431
     8  C   -0.395031
     9  H    0.185828
    10  H    0.176865
    11  H    0.207159
    12  H    0.202262
    13  H    0.173571
    14  H    0.179261
    15  H    0.182402
    16  H    0.167954
    17  H    0.160416
    18  H    0.146971
    19  C    0.081305
    20  O   -0.483375
    21  O   -0.464475
 Sum of Mulliken charges =   0.00000

 Dipole moment (field-independent basis, Debye):
    X=             -7.9754    Y=              2.3540    Z=             -9.5664  Tot=             12.6754
 Quadrupole moment (field-independent basis, Debye-Ang):
   XX=            -89.6934   YY=            -63.7499   ZZ=            -77.9501
   XY=             25.2428   XZ=            -16.4054   YZ=             33.1532

  Exact polarizability:     121.573      10.750     151.216      25.649      -7.831     123.181
 Approx polarizability:     137.059      12.923     169.966      26.027      -9.025     137.867

 Summary of Natural Population Analysis:

                                       Natural Population
                Natural  -----------------------------------------------
    Atom  No    Charge         Core      Valence    Rydberg      Total
 -----------------------------------------------------------------------
      C    1   -0.16904      1.99928     4.15366    0.01610     6.16904
      N    2   -0.35845      1.99922     5.34110    0.01813     7.35845
      C    3    0.38986      1.99904     3.58054    0.03056     5.61014
      N    4   -0.35420      1.99922     5.34025    0.01473     7.35420
      C    5   -0.36322      1.99931     4.35169    0.01222     6.36322
      C    6   -0.01858      1.99917     4.00085    0.01856     6.01858
      C    7   -0.01992      1.99917     4.00219    0.01856     6.01992
      C    8   -0.58680      1.99935     4.57949    0.00797     6.58680
      H    9    0.23275      0.00000     0.76524    0.00201     0.76725
      H   10    0.21212      0.00000     0.78633    0.00155     0.78788
      H   11    0.24725      0.00000     0.75106    0.00169     0.75275
      H   12    0.21513      0.00000     0.78361    0.00126     0.78487
      H   13    0.21675      0.00000     0.78212    0.00113     0.78325
      H   14    0.24476      0.00000     0.75388    0.00136     0.75524
      H   15    0.24512      0.00000     0.75344    0.00143     0.75488
      H   16    0.21800      0.00000     0.78017    0.00182     0.78200
      H   17    0.21633      0.00000     0.78248    0.00118     0.78367
      H   18    0.20438      0.00000     0.79415    0.00148     0.79562
      C   19    0.72497      1.99946     3.21300    0.06258     5.27503
      O   20   -0.75228      1.99977     6.73971    0.01281     8.75228
      O   21   -0.74494      1.99977     6.73181    0.01336     8.74494
 =======================================================================
   * Total *   -0.00000     21.99275    59.76677    0.24048    82.00000

                      1                      2                      3
                      A                      A                      A
 Frequencies --     44.1550                66.2037                73.2540
 Red. masses --      6.8213                 2.7821                 1.1972
 Frc consts  --      0.0078                 0.0072                 0.0038
 IR Inten    --      0.5113                 2.8282                 0.9920
 Raman Activ --      3.1880                 1.1807                 2.0010

                      4                      5                      6
                      A                      A                      A
 Frequencies --     94.9312               166.4470               207.8676
 Red. masses --      2.5860                 4.7581                 1.7881
 Frc consts  --      0.0137                 0.0777                 0.0455
 IR Inten    --      7.9866                 1.0306                13.1778
 Raman Activ --      0.9185                 3.4635                 0.2124

                      7                      8                      9
                      A                      A                      A
 Frequencies --    226.6421               231.6043               310.5092
 Red. masses --      3.4895                 1.9913                 2.6075
 Frc consts  --      0.1056                 0.0629                 0.1481
 IR Inten    --      2.3219                 9.0673                18.0646
 Raman Activ --      2.0565                 0.6170                 0.8345

                     10                     11                     12
                      A                      A                      A
 Frequencies --    353.8865               395.8667               415.2701
 Red. masses --      4.2985                 4.3381                 3.9828
 Frc consts  --      0.3172                 0.4005                 0.4047
 IR Inten    --      1.7331                 2.0930                 2.1021
 Raman Activ --      1.2360                 1.8365                 2.4805

                     13                     14                     15
                      A                      A                      A
 Frequencies --    529.6996               604.5432               643.7082
 Red. masses --      3.9903                 3.7255                 3.5696
 Frc consts  --      0.6596                 0.8022                 0.8715
 IR Inten    --      5.3040                 0.9997                 5.8264
 Raman Activ --      1.9687                12.1508                 3.2429

                     16                     17                     18
                      A                      A                      A
 Frequencies --    667.5041               739.6920               757.6077
 Red. masses --      5.4234                 1.5756                 2.4916
 Frc consts  --      1.4237                 0.5079                 0.8426
 IR Inten    --     31.4436                59.9506                24.5639
 Raman Activ --      1.3637                 5.7982                 9.6634

                     19                     20                     21
                      A                      A                      A
 Frequencies --    788.7408               796.9954               817.3913
 Red. masses --      5.3226                 1.5732                 5.4448
 Frc consts  --      1.9509                 0.5888                 2.1433
 IR Inten    --    160.0954                 7.3542                18.3210
 Raman Activ --      5.9727                 1.7129                 1.2085

                     22                     23                     24
                      A                      A                      A
 Frequencies --    866.9401               968.8864              1056.3179
 Red. masses --      1.3713                 2.2983                 2.4996
 Frc consts  --      0.6072                 1.2712                 1.6433
 IR Inten    --      0.0500                 8.2087                 1.1403
 Raman Activ --      5.8523                 9.5436                 6.4110

                     25                     26                     27
                      A                      A                      A
 Frequencies --   1072.9364              1105.8998              1114.6089
 Red. masses --      2.4260                 1.7934                 1.3024
 Frc consts  --      1.6455                 1.2923                 0.9533
 IR Inten    --      2.6404                 6.7111                 6.6105
 Raman Activ --      9.2272                15.3755                 3.9118

                     28                     29                     30
                      A                      A                      A
 Frequencies --   1130.6376              1155.1008              1198.2690
 Red. masses --      1.9496                 1.3214                 2.6771
 Frc consts  --      1.4684                 1.0388                 2.2648
 IR Inten    --     16.8642                 7.6950                 1.3477
 Raman Activ --      1.7726                 1.4291                 0.9995

                     31                     32                     33
                      A                      A                      A
 Frequencies --   1245.3743              1303.6551              1337.8198
 Red. masses --      1.6638                 1.5715                 8.3466
 Frc consts  --      1.5204                 1.5736                 8.8014
 IR Inten    --     78.3107                48.6999               404.1651
 Raman Activ --      0.9623                 3.3575                66.5866

                     34                     35                     36
                      A                      A                      A
 Frequencies --   1355.4090              1385.0135              1401.6476
 Red. masses --      5.6626                 1.4593                 1.5668
 Frc consts  --      6.1292                 1.6493                 1.8136
 IR Inten    --     29.7745                24.5927                11.7598
 Raman Activ --     79.8577                 4.9821                23.2414

                     37                     38                     39
                      A                      A                      A
 Frequencies --   1411.1005              1437.5983              1464.1747
 Red. masses --      1.6344                 1.3148                 2.3555
 Frc consts  --      1.9174                 1.6009                 2.9752
 IR Inten    --     24.9363                 8.5700                27.6344
 Raman Activ --     12.3287                 8.7560               244.8777

                     40                     41                     42
                      A                      A                      A
 Frequencies --   1476.0561              1483.8344              1487.9988
 Red. masses --      1.0939                 1.0667                 1.2945
 Frc consts  --      1.4042                 1.3838                 1.6887
 IR Inten    --      8.6374                20.1597                44.4696
 Raman Activ --     31.7266                10.4503                89.4833

                     43                     44                     45
                      A                      A                      A
 Frequencies --   1497.2529              1505.5283              1532.6398
 Red. masses --      1.1030                 1.1777                 2.6832
 Frc consts  --      1.4568                 1.5727                 3.7135
 IR Inten    --      5.8121                10.7152               168.8367
 Raman Activ --      3.5354                71.6590                 4.1584

                     46                     47                     48
                      A                      A                      A
 Frequencies --   1604.9711              1675.0154              3041.1424
 Red. masses --      4.2423                11.1166                 1.0350
 Frc consts  --      6.4386                18.3764                 5.6397
 IR Inten    --      3.7832               973.6559                24.5726
 Raman Activ --     17.8718                36.6621               328.3164

                     49                     50                     51
                      A                      A                      A
 Frequencies --   3068.3074              3088.1131              3106.3342
 Red. masses --      1.0343                 1.0678                 1.1025
 Frc consts  --      5.7372                 5.9999                 6.2677
 IR Inten    --     39.0113                22.3374                29.6556
 Raman Activ --    364.0079               257.9905               175.7393

                     52                     53                     54
                      A                      A                      A
 Frequencies --   3125.7145              3144.4927              3165.1935
 Red. masses --      1.1004                 1.1045                 1.1014
 Frc consts  --      6.3342                 6.4347                 6.5013
 IR Inten    --     24.9330                11.8348                 5.1837
 Raman Activ --    102.8057               144.2015                68.7837

                     55                     56                     57
                      A                      A                      A
 Frequencies --   3186.7060              3278.7406              3296.4023
 Red. masses --      1.1050                 1.0930                 1.1103
 Frc consts  --      6.6114                 6.9231                 7.1082
 IR Inten    --      7.0427                11.0177                 5.8592
 Raman Activ --     59.5679                98.9388               244.9447

 - Thermochemistry -
 -------------------
 Temperature   298.150 Kelvin.  Pressure   1.00000 Atm.
 Thermochemistry will use frequencies scaled by 0.9670.

 Molecular mass:   154.07423 amu.
 Principal axes and moments of inertia in atomic units:
                           1         2         3
     Eigenvalues --  1235.462571595.055922610.31469
           X            0.18365   0.67455   0.71502
           Y            0.97339  -0.02339  -0.22794
           Z           -0.13703   0.73786  -0.66090
 This molecule is an asymmetric top.
 Rotational symmetry number  1.
 Warning -- assumption of classical behavior for rotation
           may cause significant error
 Rotational temperatures (Kelvin)      0.07011     0.05430     0.03318
 Rotational constants (GHZ):           1.46078     1.13146     0.69139
 Zero-point vibrational energy     432109.0 (Joules/Mol)
                                  103.27652 (Kcal/Mol)
 Warning -- explicit consideration of  14 degrees of freedom as
           vibrations may cause significant error
 Vibrational temperatures:     61.43    92.11   101.92   132.08   231.58
          (Kelvin)            289.21   315.33   322.23   432.01   492.36
                              550.77   577.76   736.97   841.10   895.59
                              928.70  1029.13  1054.06  1097.37  1108.86
                             1137.23  1206.17  1348.01  1469.65  1492.77
                             1538.64  1550.75  1573.05  1607.09  1667.15
                             1732.69  1813.77  1861.31  1885.78  1926.97
                             1950.11  1963.26  2000.13  2037.10  2053.63
                             2064.45  2070.25  2083.12  2094.64  2132.36
                             2232.99  2330.44  4231.13  4268.93  4296.48
                             4321.83  4348.80  4374.92  4403.73  4433.66
                             4561.70  4586.28

 Zero-point correction=                           0.164582 (Hartree/Particle)
 Thermal correction to Energy=                    0.175852
 Thermal correction to Enthalpy=                  0.176796
 Thermal correction to Gibbs Free Energy=         0.126601
 Sum of electronic and zero-point Energies=           -532.767287
 Sum of electronic and thermal Energies=              -532.756017
 Sum of electronic and thermal Enthalpies=            -532.755072
 Sum of electronic and thermal Free Energies=         -532.805268

                     E (Thermal)             CV                S
                      KCal/Mol        Cal/Mol-Kelvin    Cal/Mol-Kelvin
 Total                  110.349             40.303            105.645
 Electronic               0.000              0.000              0.000
 Translational            0.889              2.981             41.006
 Rotational               0.889              2.981             30.021
 Vibrational            108.571             34.341             34.617
 Vibration     1          0.595              1.980              5.130
 Vibration     2          0.597              1.971              4.329
 Vibration     3          0.598              1.968              4.130
 Vibration     4          0.602              1.955              3.621
 Vibration     5          0.622              1.890              2.539
 Vibration     6          0.638              1.838              2.124
 Vibration     7          0.647              1.812              1.966
 Vibration     8          0.649              1.805              1.927
 Vibration     9          0.693              1.673              1.415
 Vibration    10          0.721              1.591              1.202
 Vibration    11          0.752              1.507              1.028
 Vibration    12          0.767              1.467              0.957
 Vibration    13          0.867              1.223              0.628
 Vibration    14          0.942              1.065              0.477

 Optimization completed.
    -- Stationary point found.
 Normal termination of Gaussian 16 at Fri Jun  2 14:17:43 2023.
