 Gaussian 16, Revision C.02,
 Gaussian 16:  ES64L-G16RevC.02  7-Dec-2021

 ----------------------------------------------------------------------
 #p freq=raman scale=0.967 guess=read geom=allcheck b3lyp/6-311+G(d,p)
 int=grid=ultrafine EmpiricalDispersion=GD3BJ SCRF=(Solvent=ethanol) sc
 f=(xqc,intrep,maxconventionalcycle=350) nosymm
 ----------------------------------------------------------------------

 Structure from the checkpoint file:  "/scratch1/svicchi/G09-1734041.pbs02/02-freq/PyrMe-isolated-freq.chk"
 --------------
 PyrMe-isolated
 --------------
 Charge = -1 Multiplicity = 1

                          Input orientation:
 ---------------------------------------------------------------------
 Center     Atomic      Atomic             Coordinates (Angstroms)
 Number     Number       Type             X           Y           Z
 ---------------------------------------------------------------------
      1          6           0       -0.353255    0.511068   -0.215337
      2          6           0       -1.036942   -0.686028   -0.454351
      3          6           0       -0.035443   -1.698098   -0.463855
      4          1           0       -2.102823   -0.812700   -0.599688
      5          6           0        1.182496   -1.043844   -0.229955
      6          1           0       -0.177110   -2.761302   -0.617736
      7          7           0        0.994439    0.301344   -0.078718
      8          1           0       -0.769666    1.509746   -0.136832
      9          6           0        2.551631   -1.658013   -0.143923
     10          1           0        2.498775   -2.743239   -0.270406
     11          1           0        3.031055   -1.461864    0.823195
     12          1           0        3.228283   -1.269658   -0.915686
 ---------------------------------------------------------------------

 SCF Done:  E(RB3LYP) =  -249.080139567     A.U. after    1 cycles

 Alpha  occ. eigenvalues --  -14.24200 -10.14291 -10.13937 -10.13322 -10.11449
 Alpha  occ. eigenvalues --  -10.11232  -0.88706  -0.71685  -0.69751  -0.62322
 Alpha  occ. eigenvalues --   -0.51396  -0.47705  -0.45696  -0.39645  -0.39158
 Alpha  occ. eigenvalues --   -0.34417  -0.33818  -0.32922  -0.32668  -0.22812
 Alpha  occ. eigenvalues --   -0.19097  -0.16392
 Alpha virt. eigenvalues --    0.01398   0.02847   0.04079   0.05010   0.05595
 Alpha virt. eigenvalues --    0.06127   0.06825   0.07580   0.07765   0.09024
 Alpha virt. eigenvalues --    0.09540   0.09684   0.10666   0.12398   0.13652

 Mulliken charges:
               1
     1  C   -0.191080
     2  C   -0.303252
     3  C   -0.231537
     4  H    0.091209
     5  C    0.097303
     6  H    0.085339
     7  N   -0.403712
     8  H    0.084301
     9  C   -0.610277
    10  H    0.127664
    11  H    0.126912
    12  H    0.127129
 Sum of Mulliken charges =  -1.00000

 Dipole moment (field-independent basis, Debye):
    X=             -2.4213    Y=              0.5016    Z=              0.9208  Tot=              2.6386
 Quadrupole moment (field-independent basis, Debye-Ang):
   XX=            -45.9052   YY=            -43.6216   ZZ=            -44.7654
   XY=             -2.6848   XZ=              0.0612   YZ=             -0.3389

  Exact polarizability:     118.394      -0.212     111.855       4.615       4.167      80.951
 Approx polarizability:     125.574       2.220     122.703       5.440       5.478      84.288

                      1                      2                      3
                      A                      A                      A
 Frequencies --    101.2746               242.5793               346.8706
 Red. masses --      1.0921                 2.8995                 2.5629
 Frc consts  --      0.0066                 0.1005                 0.1817
 IR Inten    --      0.9477                16.9666                10.1416
 Raman Activ --      0.4968                 6.7541                 2.6257

                      4                      5                      6
                      A                      A                      A
 Frequencies --    633.5067               657.3370               676.8572
 Red. masses --      3.4054                 4.2022                 3.2428
 Frc consts  --      0.8052                 1.0698                 0.8753
 IR Inten    --     17.3927                 1.3327                27.2007
 Raman Activ --      0.2401                14.0162                20.9568

                      7                      8                      9
                      A                      A                      A
 Frequencies --    690.0787               725.5943               802.2732
 Red. masses --      1.2866                 1.3522                 1.2558
 Frc consts  --      0.3610                 0.4194                 0.4762
 IR Inten    --    185.0759                 1.5762                11.2637
 Raman Activ --     40.5775                60.6018                 9.2308

                     10                     11                     12
                      A                      A                      A
 Frequencies --    905.8049               958.7430               978.3985
 Red. masses --      5.4927                 2.6901                 1.4563
 Frc consts  --      2.6553                 1.4569                 0.8214
 IR Inten    --      0.3117                10.5063                19.8383
 Raman Activ --      5.5114                 4.5807                 4.2751

                     13                     14                     15
                      A                      A                      A
 Frequencies --   1022.2744              1049.2449              1090.7066
 Red. masses --      1.3729                 1.4497                 1.9329
 Frc consts  --      0.8453                 0.9404                 1.3548
 IR Inten    --     49.0274                 0.5390                13.0590
 Raman Activ --      0.9791                 0.9164                52.1861

                     16                     17                     18
                      A                      A                      A
 Frequencies --   1190.3321              1251.2280              1303.4505
 Red. masses --      2.1242                 2.4386                 5.4957
 Frc consts  --      1.7733                 2.2494                 5.5012
 IR Inten    --     28.7816                 0.5661                15.1767
 Raman Activ --     19.9271                81.8651                68.9879

                     19                     20                     21
                      A                      A                      A
 Frequencies --   1397.0828              1413.2167              1434.1561
 Red. masses --      1.2761                 3.5665                 2.6160
 Frc consts  --      1.4675                 4.1967                 3.1701
 IR Inten    --      8.0118                23.6357                65.3374
 Raman Activ --     14.6187                71.9181               133.9234

                     22                     23                     24
                      A                      A                      A
 Frequencies --   1467.4656              1485.6895              1510.9674
 Red. masses --      1.0453                 1.5082                 2.3988
 Frc consts  --      1.3263                 1.9615                 3.2267
 IR Inten    --      7.4286                 2.6142                 5.3068
 Raman Activ --     19.7929                32.4572                38.1076

                     25                     26                     27
                      A                      A                      A
 Frequencies --   2985.4055              3016.7832              3070.0968
 Red. masses --      1.0392                 1.1003                 1.0960
 Frc consts  --      5.4568                 5.8998                 6.0862
 IR Inten    --    152.9058                70.9866                57.8230
 Raman Activ --    585.5268               264.0441               164.8270

                     28                     29                     30
                      A                      A                      A
 Frequencies --   3150.6815              3168.2977              3189.6175
 Red. masses --      1.0876                 1.0910                 1.1024
 Frc consts  --      6.3609                 6.4524                 6.6076
 IR Inten    --     32.4584                73.7863                52.3095
 Raman Activ --    233.5867               150.2426               400.7030

 - Thermochemistry -
 -------------------
 Temperature   298.150 Kelvin.  Pressure   1.00000 Atm.
 Thermochemistry will use frequencies scaled by 0.9670.

 Molecular mass:    80.05002 amu.
 Principal axes and moments of inertia in atomic units:
                           1         2         3
     Eigenvalues --   203.95808 516.03698 708.83976
           X            0.90447   0.40937  -0.11978
           Y           -0.42296   0.89708  -0.12788
           Z            0.05511   0.16633   0.98453
 This molecule is an asymmetric top.
 Rotational symmetry number  1.
 Rotational temperatures (Kelvin)      0.42467     0.16784     0.12219
 Rotational constants (GHZ):           8.84859     3.49731     2.54605
 Zero-point vibrational energy     242439.9 (Joules/Mol)
                                   57.94453 (Kcal/Mol)
 Warning -- explicit consideration of   4 degrees of freedom as
           vibrations may cause significant error
 Vibrational temperatures:    140.90   337.50   482.60   881.40   914.55
          (Kelvin)            941.71   960.10  1009.52  1116.20  1260.24
                             1333.90  1361.24  1422.29  1459.81  1517.50
                             1656.11  1740.83  1813.49  1943.76  1966.20
                             1995.34  2041.68  2067.04  2102.20  4153.59
                             4197.24  4271.42  4383.53  4408.04  4437.71

 Zero-point correction=                           0.092340 (Hartree/Particle)
 Thermal correction to Energy=                    0.097899
 Thermal correction to Enthalpy=                  0.098844
 Thermal correction to Gibbs Free Energy=         0.063497
 Sum of electronic and zero-point Energies=           -248.987799
 Sum of electronic and thermal Energies=              -248.982240
 Sum of electronic and thermal Enthalpies=            -248.981296
 Sum of electronic and thermal Free Energies=         -249.016643

                     E (Thermal)             CV                S
                      KCal/Mol        Cal/Mol-Kelvin    Cal/Mol-Kelvin
 Total                   61.433             20.347             74.393
 Electronic               0.000              0.000              0.000
 Translational            0.889              2.981             39.055
 Rotational               0.889              2.981             25.815
 Vibrational             59.655             14.385              9.524
 Vibration     1          0.603              1.951              3.495
 Vibration     2          0.654              1.788              1.844
 Vibration     3          0.717              1.605              1.234
 Vibration     4          0.972              1.005              0.428

 Optimization completed.
    -- Stationary point found.
 Normal termination of Gaussian 16 at Thu Dec 14 12:47:53 2023.
