 Gaussian 16, Revision C.01,
 Gaussian 16:  ES64L-G16RevC.01  3-Jul-2019

 ----------------------------------------------------------------------
 #p freq=raman scale=0.967 pop=(nbo,full,hirshfeld) guess=read geom=all
 check b3lyp/6-311+G(d,p) int=grid=ultrafine EmpiricalDispersion=GD3BJ
 SCRF=(Solvent=ethanol) scf=(xqc,intrep,maxconventionalcycle=350) nosym
 m
 ----------------------------------------------------------------------

 Structure from the checkpoint file:  "/scratch1/svicchi/G09-659859.pbs02/02-freq/pyrazolide-CO2_binding-site_index-1-freq.chk"
 ---------------------------------------
 pyrazolide-CO2_binding-site_index-1.gjf
 ---------------------------------------
 Charge = -1 Multiplicity = 1

                          Input orientation:
 ---------------------------------------------------------------------
 Center     Atomic      Atomic             Coordinates (Angstroms)
 Number     Number       Type             X           Y           Z
 ---------------------------------------------------------------------
      1          7           0        0.697578   -0.016734    1.035807
      2          7           0       -0.655436   -0.026068    0.945902
      3          6           0        1.117733    0.559573   -0.087151
      4          6           0        0.035351    0.930632   -0.919112
      5          6           0       -1.085085    0.536664   -0.218165
      6          1           0        2.176409    0.688998   -0.262056
      7          1           0        0.070512    1.412220   -1.883091
      8          1           0       -2.135642    0.604952   -0.439345
      9          6           0       -1.536317   -0.593448    2.017308
     10          8           0       -0.945135   -1.059148    2.998202
     11          8           0       -2.746000   -0.504629    1.746112
 ---------------------------------------------------------------------

 SCF Done:  E(RB3LYP) =  -414.474859527     A.U. after    1 cycles

 Alpha  occ. eigenvalues --  -19.06927 -19.06889 -14.37511 -14.32536 -10.28909
 Alpha  occ. eigenvalues --  -10.19823 -10.18807 -10.16295  -1.06335  -1.01755
 Alpha  occ. eigenvalues --   -0.95913  -0.81011  -0.77246  -0.61688  -0.59299
 Alpha  occ. eigenvalues --   -0.53998  -0.47922  -0.45545  -0.43879  -0.43278
 Alpha  occ. eigenvalues --   -0.40765  -0.39742  -0.38941  -0.29372  -0.27430
 Alpha  occ. eigenvalues --   -0.26571  -0.25652  -0.24870  -0.24571
 Alpha virt. eigenvalues --   -0.00942   0.01333   0.03262   0.03728   0.04648
 Alpha virt. eigenvalues --    0.05416   0.05494   0.06118   0.06875   0.08776
 Alpha virt. eigenvalues --    0.08939   0.10051   0.10476   0.10479   0.12385

 Mulliken charges:
               1
     1  N   -0.285616
     2  N   -0.006076
     3  C   -0.202097
     4  C   -0.149919
     5  C   -0.125496
     6  H    0.142331
     7  H    0.140996
     8  H    0.160214
     9  C    0.387217
    10  O   -0.538604
    11  O   -0.522950
 Sum of Mulliken charges =  -1.00000

 Dipole moment (field-independent basis, Debye):
    X=              6.2737    Y=              4.2102    Z=            -12.5145  Tot=             14.6184
 Quadrupole moment (field-independent basis, Debye-Ang):
   XX=            -66.6883   YY=            -52.1632   ZZ=            -79.1216
   XY=             -4.9238   XZ=             14.4774   YZ=              9.5671

  Exact polarizability:     108.904       3.821      67.748      -3.521     -22.005     100.548
 Approx polarizability:     127.575       1.289      75.399       2.549     -25.250     113.643

 Summary of Natural Population Analysis:

                                       Natural Population
                Natural  -----------------------------------------------
    Atom  No    Charge         Core      Valence    Rydberg      Total
 -----------------------------------------------------------------------
      N    1   -0.32511      1.99946     5.30105    0.02460     7.32511
      N    2   -0.29373      1.99925     5.25864    0.03584     7.29373
      C    3   -0.04340      1.99932     4.01420    0.02988     6.04340
      C    4   -0.34832      1.99916     4.33200    0.01716     6.34832
      C    5   -0.01180      1.99919     3.99027    0.02234     6.01180
      H    6    0.20477      0.00000     0.79391    0.00132     0.79523
      H    7    0.22676      0.00000     0.77185    0.00139     0.77324
      H    8    0.23268      0.00000     0.76562    0.00170     0.76732
      C    9    0.91280      1.99959     3.02709    0.06052     5.08720
      O   10   -0.76678      1.99975     6.75405    0.01297     8.76678
      O   11   -0.78787      1.99976     6.77495    0.01316     8.78787
 =======================================================================
   * Total *   -1.00000     15.99549    41.78364    0.22087    58.00000

                      1                      2                      3
                      A                      A                      A
 Frequencies --     63.7243               164.0265               245.7365
 Red. masses --      7.4919                 6.2893                 6.9749
 Frc consts  --      0.0179                 0.0997                 0.2482
 IR Inten    --      2.8689                 0.7298                 2.2129
 Raman Activ --      0.0791                 3.1324                 0.4570

                      4                      5                      6
                      A                      A                      A
 Frequencies --    411.5796               544.4579               618.3326
 Red. masses --     10.3950                 9.0295                 3.2797
 Frc consts  --      1.0375                 1.5770                 0.7388
 IR Inten    --      8.1203                 1.1735                 8.1992
 Raman Activ --      5.1406                 2.8902                 0.8353

                      7                      8                      9
                      A                      A                      A
 Frequencies --    667.2191               761.0919               764.9635
 Red. masses --      5.6480                12.8607                 1.2259
 Frc consts  --      1.4814                 4.3892                 0.4226
 IR Inten    --      6.8633               402.4403               134.5160
 Raman Activ --      0.6646                 5.7900                 5.5147

                     10                     11                     12
                      A                      A                      A
 Frequencies --    794.8231               862.7808               898.7942
 Red. masses --      9.9828                 1.3020                 1.3618
 Frc consts  --      3.7157                 0.5710                 0.6482
 IR Inten    --     20.9859                 3.2244                 6.0778
 Raman Activ --      3.2951                 5.4132                 0.3819

                     13                     14                     15
                      A                      A                      A
 Frequencies --    936.0975               974.5158              1039.1125
 Red. masses --      5.9142                 2.7619                 1.3786
 Frc consts  --      3.0534                 1.5454                 0.8771
 IR Inten    --      7.0169                11.7254               175.7345
 Raman Activ --     10.5101                18.7197                 6.9312

                     16                     17                     18
                      A                      A                      A
 Frequencies --   1078.2360              1195.0802              1232.7449
 Red. masses --      2.1123                 2.0511                 3.3426
 Frc consts  --      1.4469                 1.7260                 2.9928
 IR Inten    --     47.3089               223.8184                52.5181
 Raman Activ --     26.9970                40.0348                36.1942

                     19                     20                     21
                      A                      A                      A
 Frequencies --   1286.2975              1328.8563              1407.7714
 Red. masses --      8.2102                 4.7634                 4.4301
 Frc consts  --      8.0036                 4.9559                 5.1728
 IR Inten    --    637.6610               119.1335                23.3700
 Raman Activ --     22.0544                76.6038                76.6255

                     22                     23                     24
                      A                      A                      A
 Frequencies --   1438.0034              1535.2862              1720.2981
 Red. masses --      3.6764                 4.1619                12.8272
 Frc consts  --      4.4792                 5.7800                22.3660
 IR Inten    --      6.7342                28.9692              1126.5157
 Raman Activ --     25.2050                 6.6692                17.4272

                     25                     26                     27
                      A                      A                      A
 Frequencies --   3217.4526              3248.5881              3285.0048
 Red. masses --      1.0942                 1.0975                 1.1013
 Frc consts  --      6.6736                 6.8242                 7.0019
 IR Inten    --     12.9819                 4.6047                 2.9227
 Raman Activ --    207.1295               232.1370               180.1338

 - Thermochemistry -
 -------------------
 Temperature   298.150 Kelvin.  Pressure   1.00000 Atm.
 Thermochemistry will use frequencies scaled by 0.9670.

 Molecular mass:   111.01945 amu.
 Principal axes and moments of inertia in atomic units:
                           1         2         3
     Eigenvalues --   335.809421030.207171366.01626
           X           -0.59428   0.80349  -0.03508
           Y           -0.37708  -0.23983   0.89459
           Z            0.71038   0.54486   0.44551
 This molecule is an asymmetric top.
 Rotational symmetry number  1.
 Rotational temperatures (Kelvin)      0.25793     0.08407     0.06341
 Rotational constants (GHZ):           5.37430     1.75182     1.32117
 Zero-point vibrational energy     183471.8 (Joules/Mol)
                                   43.85081 (Kcal/Mol)
 Warning -- explicit consideration of   6 degrees of freedom as
           vibrations may cause significant error
 Vibrational temperatures:     88.66   228.21   341.89   572.63   757.50
          (Kelvin)            860.28   928.30  1058.91  1064.29  1105.84
                             1200.38  1250.49  1302.39  1355.84  1445.71
                             1500.15  1662.71  1715.11  1789.62  1848.83
                             1958.63  2000.69  2136.04  2393.45  4476.43
                             4519.75  4570.42

 Zero-point correction=                           0.069881 (Hartree/Particle)
 Thermal correction to Energy=                    0.076139
 Thermal correction to Enthalpy=                  0.077083
 Thermal correction to Gibbs Free Energy=         0.038784
 Sum of electronic and zero-point Energies=           -414.404979
 Sum of electronic and thermal Energies=              -414.398720
 Sum of electronic and thermal Enthalpies=            -414.397776
 Sum of electronic and thermal Free Energies=         -414.436076

                     E (Thermal)             CV                S
                      KCal/Mol        Cal/Mol-Kelvin    Cal/Mol-Kelvin
 Total                   47.778             22.383             80.608
 Electronic               0.000              0.000              0.000
 Translational            0.889              2.981             40.030
 Rotational               0.889              2.981             27.649
 Vibrational             46.001             16.421             12.929
 Vibration     1          0.597              1.973              4.405
 Vibration     2          0.621              1.893              2.566
 Vibration     3          0.656              1.783              1.821
 Vibration     4          0.764              1.474              0.970
 Vibration     5          0.881              1.191              0.595
 Vibration     6          0.956              1.036              0.453

 Optimization completed.
    -- Stationary point found.
 Normal termination of Gaussian 16 at Fri Jun  2 11:35:53 2023.
