 Gaussian 16, Revision C.01,
 Gaussian 16:  ES64L-G16RevC.01  3-Jul-2019

 ----------------------------------------------------------------------
 #p freq=raman scale=0.967 pop=(nbo,full,hirshfeld) guess=read geom=all
 check b3lyp/6-311+G(d,p) int=grid=ultrafine EmpiricalDispersion=GD3BJ
 SCRF=(Solvent=ethanol) scf=(xqc,intrep,maxconventionalcycle=350) nosym
 m
 ----------------------------------------------------------------------

 Structure from the checkpoint file:  "/scratch1/svicchi/G09-659857.pbs02/02-freq/pyrazolide-H_dissociation-site_index-1-freq.chk"
 ------------------------------------------
 pyrazolide-H_dissociation-site_index-1.gjf
 ------------------------------------------
 Charge =  0 Multiplicity = 1

                          Input orientation:
 ---------------------------------------------------------------------
 Center     Atomic      Atomic             Coordinates (Angstroms)
 Number     Number       Type             X           Y           Z
 ---------------------------------------------------------------------
      1          7           0        0.664287   -0.745098    0.556408
      2          7           0       -0.680649   -0.626644    0.574059
      3          6           0        1.087612    0.365188   -0.049286
      4          6           0        0.009746    1.198427   -0.421117
      5          6           0       -1.118317    0.519898    0.000458
      6          1           0        2.144933    0.526873   -0.196415
      7          1           0        0.048332    2.151509   -0.921844
      8          1           0       -2.167642    0.757682   -0.061475
      9          1           0       -1.239428   -1.356328    0.989184
 ---------------------------------------------------------------------

 SCF Done:  E(RB3LYP) =  -226.285600849     A.U. after    1 cycles

 Alpha  occ. eigenvalues --  -14.39407 -14.34119 -10.21526 -10.19783 -10.17329
 Alpha  occ. eigenvalues --   -1.05685  -0.82822  -0.78817  -0.61915  -0.60577
 Alpha  occ. eigenvalues --   -0.55275  -0.45582  -0.44980  -0.43696  -0.40993
 Alpha  occ. eigenvalues --   -0.30999  -0.27417  -0.26282
 Alpha virt. eigenvalues --   -0.00371   0.00718   0.02983   0.03656   0.04030
 Alpha virt. eigenvalues --    0.05468   0.05639   0.05761   0.07694   0.09481
 Alpha virt. eigenvalues --    0.11041   0.11551   0.12238   0.14943   0.15820

 Mulliken charges:
               1
     1  N   -0.279199
     2  N   -0.096294
     3  C   -0.148141
     4  C   -0.098624
     5  C   -0.167328
     6  H    0.148490
     7  H    0.148699
     8  H    0.160295
     9  H    0.332102
 Sum of Mulliken charges =   0.00000

 Dipole moment (field-independent basis, Debye):
    X=             -2.9675    Y=              0.8888    Z=             -0.2879  Tot=              3.1111
 Quadrupole moment (field-independent basis, Debye-Ang):
   XX=            -24.3058   YY=            -28.7505   ZZ=            -31.4199
   XY=              3.9249   XZ=             -3.1588   YZ=             -2.0827

  Exact polarizability:      70.238      -1.182      62.748      -1.147     -11.572      46.600
 Approx polarizability:      85.468      -0.471      76.252      -2.159     -16.392      53.550

 Summary of Natural Population Analysis:

                                       Natural Population
                Natural  -----------------------------------------------
    Atom  No    Charge         Core      Valence    Rydberg      Total
 -----------------------------------------------------------------------
      N    1   -0.34094      1.99949     5.31235    0.02910     7.34094
      N    2   -0.33941      1.99940     5.31636    0.02365     7.33941
      C    3   -0.04478      1.99933     4.01492    0.03053     6.04478
      C    4   -0.34367      1.99918     4.32745    0.01704     6.34367
      C    5   -0.02600      1.99925     4.00463    0.02212     6.02600
      H    6    0.21102      0.00000     0.78769    0.00129     0.78898
      H    7    0.23241      0.00000     0.76629    0.00130     0.76759
      H    8    0.22905      0.00000     0.76960    0.00134     0.77095
      H    9    0.42233      0.00000     0.57573    0.00194     0.57767
 =======================================================================
   * Total *   -0.00000      9.99665    25.87502    0.12833    36.00000

                      1                      2                      3
                      A                      A                      A
 Frequencies --    549.7679               635.8469               688.3234
 Red. masses --      1.7130                 2.4175                 2.8073
 Frc consts  --      0.3051                 0.5759                 0.7836
 IR Inten    --     99.2709                 0.0145                39.6908
 Raman Activ --      0.4944                 0.2808                 0.9136

                      4                      5                      6
                      A                      A                      A
 Frequencies --    759.3956               858.6438               899.2547
 Red. masses --      1.1942                 1.2547                 1.3470
 Frc consts  --      0.4057                 0.5450                 0.6418
 IR Inten    --    143.4464                 9.4227                 4.9626
 Raman Activ --      2.6439                 4.5919                 0.3648

                      7                      8                      9
                      A                      A                      A
 Frequencies --    931.0324               943.6670              1043.9529
 Red. masses --      5.7877                 3.8594                 1.7258
 Frc consts  --      2.9558                 2.0249                 1.1081
 IR Inten    --     11.7686                 6.0805                76.1617
 Raman Activ --      6.2694                 1.8125                 3.2141

                     10                     11                     12
                      A                      A                      A
 Frequencies --   1053.1236              1140.0201              1174.7883
 Red. masses --      1.4318                 1.7490                 3.2252
 Frc consts  --      0.9356                 1.3393                 2.6226
 IR Inten    --     13.0262                43.9876                 0.6036
 Raman Activ --      2.4630                 4.8844                69.2231

                     13                     14                     15
                      A                      A                      A
 Frequencies --   1278.6601              1378.9350              1416.8191
 Red. masses --      1.9502                 2.4191                 3.4970
 Frc consts  --      1.8786                 2.7102                 4.1360
 IR Inten    --      3.5721                13.1555                25.0028
 Raman Activ --     38.2247                34.2581                56.3652

                     16                     17                     18
                      A                      A                      A
 Frequencies --   1481.7919              1559.4289              3233.3955
 Red. masses --      2.7166                 2.6087                 1.0946
 Frc consts  --      3.5144                 3.7377                 6.7423
 IR Inten    --     14.4114                11.2605                 5.0008
 Raman Activ --      6.1316                 6.3130               162.6676

                     19                     20                     21
                      A                      A                      A
 Frequencies --   3255.0461              3271.1276              3650.9737
 Red. masses --      1.0938                 1.1070                 1.0829
 Frc consts  --      6.8284                 6.9792                 8.5044
 IR Inten    --      0.8335                 0.1644               161.0941
 Raman Activ --     94.3936               265.5241               170.0772

 - Thermochemistry -
 -------------------
 Temperature   298.150 Kelvin.  Pressure   1.00000 Atm.
 Thermochemistry will use frequencies scaled by 0.9670.

 Molecular mass:    68.03745 amu.
 Principal axes and moments of inertia in atomic units:
                           1         2         3
     Eigenvalues --   188.22756 190.61729 378.84484
           X           -0.52714   0.84816   0.05242
           Y            0.76546   0.44714   0.46275
           Z           -0.36905  -0.28406   0.88494
 This molecule is an asymmetric top.
 Rotational symmetry number  1.
 Rotational temperatures (Kelvin)      0.46016     0.45439     0.22863
 Rotational constants (GHZ):           9.58808     9.46788     4.76380
 Zero-point vibrational energy     180482.2 (Joules/Mol)
                                   43.13627 (Kcal/Mol)
 Warning -- explicit consideration of   2 degrees of freedom as
           vibrations may cause significant error
 Vibrational temperatures:    764.89   884.65   957.66  1056.55  1194.63
          (Kelvin)           1251.13  1295.34  1312.92  1452.45  1465.21
                             1586.11  1634.48  1779.00  1918.51  1971.22
                             2061.61  2169.63  4498.61  4528.74  4551.11
                             5079.59

 Zero-point correction=                           0.068742 (Hartree/Particle)
 Thermal correction to Energy=                    0.072551
 Thermal correction to Enthalpy=                  0.073495
 Thermal correction to Gibbs Free Energy=         0.042454
 Sum of electronic and zero-point Energies=           -226.216859
 Sum of electronic and thermal Energies=              -226.213050
 Sum of electronic and thermal Enthalpies=            -226.212105
 Sum of electronic and thermal Free Energies=         -226.243147

                     E (Thermal)             CV                S
                      KCal/Mol        Cal/Mol-Kelvin    Cal/Mol-Kelvin
 Total                   45.527             13.784             65.332
 Electronic               0.000              0.000              0.000
 Translational            0.889              2.981             38.570
 Rotational               0.889              2.981             24.123
 Vibrational             43.749              7.822              2.639
 Vibration     1          0.887              1.180              0.584
 Vibration     2          0.974              1.000              0.425

 Optimization completed.
    -- Stationary point found.
 Normal termination of Gaussian 16 at Fri Jun  2 11:13:41 2023.
