 Gaussian 16, Revision C.01,
 Gaussian 16:  ES64L-G16RevC.01  3-Jul-2019

 ----------------------------------------------------------------------
 #p freq=raman scale=0.967 pop=(nbo,full,hirshfeld) guess=read geom=all
 check b3lyp/6-311+G(d,p) int=grid=ultrafine EmpiricalDispersion=GD3BJ
 SCRF=(Solvent=ethanol) scf=(xqc,intrep,maxconventionalcycle=350) nosym
 m
 ----------------------------------------------------------------------

 Structure from the checkpoint file:  "/scratch1/svicchi/G09-763143.pbs02/02-freq/PG-CO2_binding-site_index-0-freq.chk"
 -------------------------------
 PG-CO2_binding-site_index-0.gjf
 -------------------------------
 Charge =  0 Multiplicity = 1

                          Input orientation:
 ---------------------------------------------------------------------
 Center     Atomic      Atomic             Coordinates (Angstroms)
 Number     Number       Type             X           Y           Z
 ---------------------------------------------------------------------
      1          8           0       -4.215328    1.831545    0.572068
      2          6           0       -2.950594    2.503649    0.462497
      3          6           0       -1.988013    1.538029   -0.210182
      4          1           0       -2.573978    2.768500    1.456048
      5          1           0       -3.051471    3.412954   -0.139281
      6          6           0       -0.592267    2.119186   -0.341218
      7          1           0       -0.610265    3.023878   -0.953573
      8          1           0        0.073619    1.397150   -0.817817
      9          1           0       -0.185222    2.369812    0.642099
     10          8           0       -1.900163    0.326615    0.554863
     11          1           0       -2.384854    1.301113   -1.206047
     12          1           0       -2.807638    0.074863    0.771172
     13          1           0       -4.744057    2.260149    1.252507
     14          6           0       -5.620273    1.821618   -1.839755
     15          8           0       -4.744707    2.371434   -2.368108
     16          8           0       -6.519157    1.272000   -1.352694
 ---------------------------------------------------------------------

 SCF Done:  E(RB3LYP) =  -458.342905738     A.U. after    1 cycles

 Alpha  occ. eigenvalues --  -19.20309 -19.20304 -19.14034 -19.12630 -10.36096
 Alpha  occ. eigenvalues --  -10.22591 -10.22203 -10.16385  -1.16458  -1.12591
 Alpha  occ. eigenvalues --   -1.04613  -1.01956  -0.77902  -0.69117  -0.59524
 Alpha  occ. eigenvalues --   -0.56726  -0.54018  -0.52601  -0.51906  -0.51756
 Alpha  occ. eigenvalues --   -0.51025  -0.48177  -0.44056  -0.40276  -0.39210
 Alpha  occ. eigenvalues --   -0.38127  -0.37596  -0.37404  -0.36312  -0.34315
 Alpha  occ. eigenvalues --   -0.30016  -0.28385
 Alpha virt. eigenvalues --   -0.01139   0.01404   0.01569   0.02655   0.02995
 Alpha virt. eigenvalues --    0.03166   0.04368   0.05476   0.06066   0.06270
 Alpha virt. eigenvalues --    0.06915   0.08087   0.08572   0.09806   0.10649

 Mulliken charges:
               1
     1  O   -0.404128
     2  C   -0.256303
     3  C   -0.030765
     4  H    0.162528
     5  H    0.160560
     6  C   -0.453924
     7  H    0.149829
     8  H    0.153082
     9  H    0.151256
    10  O   -0.358878
    11  H    0.154256
    12  H    0.277088
    13  H    0.293708
    14  C    0.492901
    15  O   -0.236783
    16  O   -0.254429
 Sum of Mulliken charges =  -0.00000

 Dipole moment (field-independent basis, Debye):
    X=             -0.9687    Y=              2.9645    Z=              0.7238  Tot=              3.2017
 Quadrupole moment (field-independent basis, Debye-Ang):
   XX=            -46.1144   YY=            -38.6426   ZZ=            -46.3548
   XY=             -9.7523   XZ=             -5.7902   YZ=              4.4588

  Exact polarizability:      86.184       7.945      73.702      -7.288      -4.800      72.333
 Approx polarizability:      96.005      13.572      82.069     -12.178      -8.273      80.689

 Summary of Natural Population Analysis:

                                       Natural Population
                Natural  -----------------------------------------------
    Atom  No    Charge         Core      Valence    Rydberg      Total
 -----------------------------------------------------------------------
      O    1   -0.77861      1.99979     6.76445    0.01438     8.77861
      C    2   -0.05117      1.99915     4.03194    0.02008     6.05117
      C    3    0.09365      1.99919     3.88394    0.02322     5.90635
      H    4    0.17520      0.00000     0.82243    0.00237     0.82480
      H    5    0.17687      0.00000     0.82097    0.00216     0.82313
      C    6   -0.59374      1.99932     4.58354    0.01088     6.59374
      H    7    0.21179      0.00000     0.78688    0.00133     0.78821
      H    8    0.21265      0.00000     0.78607    0.00129     0.78735
      H    9    0.20375      0.00000     0.79426    0.00199     0.79625
      O   10   -0.77612      1.99979     6.76212    0.01421     8.77612
      H   11    0.16814      0.00000     0.82798    0.00387     0.83186
      H   12    0.47970      0.00000     0.51589    0.00440     0.52030
      H   13    0.48517      0.00000     0.51074    0.00409     0.51483
      C   14    1.02347      1.99973     2.92637    0.05043     4.97653
      O   15   -0.51652      1.99971     6.50330    0.01351     8.51652
      O   16   -0.51424      1.99971     6.50143    0.01311     8.51424
 =======================================================================
   * Total *    0.00000     15.99638    47.82231    0.18131    64.00000

                      1                      2                      3
                      A                      A                      A
 Frequencies --     20.3434                24.1604                47.9587
 Red. masses --      9.3716                 4.1742                 5.8829
 Frc consts  --      0.0023                 0.0014                 0.0080
 IR Inten    --      0.6615                 3.1269                 0.1202
 Raman Activ --      2.6571                 0.1924                 0.5619

                      4                      5                      6
                      A                      A                      A
 Frequencies --     90.6694               110.5580               160.7206
 Red. masses --      6.3174                 8.1209                 3.8402
 Frc consts  --      0.0306                 0.0585                 0.0584
 IR Inten    --      0.1193                 0.9908                15.4653
 Raman Activ --      0.2881                 3.3087                 0.9510

                      7                      8                      9
                      A                      A                      A
 Frequencies --    224.3903               249.5043               269.1462
 Red. masses --      1.0576                 2.5416                 1.1599
 Frc consts  --      0.0314                 0.0932                 0.0495
 IR Inten    --      0.7961                14.1564               158.5801
 Raman Activ --      0.0123                 0.1149                 1.7889

                     10                     11                     12
                      A                      A                      A
 Frequencies --    362.5906               415.7796               480.7137
 Red. masses --      2.3629                 1.1970                 2.3660
 Frc consts  --      0.1830                 0.1219                 0.3221
 IR Inten    --     26.8239               154.6242                15.6242
 Raman Activ --      0.3690                 1.7381                 0.7768

                     13                     14                     15
                      A                      A                      A
 Frequencies --    519.7642               637.6518               664.9375
 Red. masses --      3.5431                12.9169                12.8212
 Frc consts  --      0.5640                 3.0944                 3.3400
 IR Inten    --     35.8591                83.4887                45.5296
 Raman Activ --      2.8497                 3.6364                 0.0499

                     16                     17                     18
                      A                      A                      A
 Frequencies --    837.8982               924.2688               946.7001
 Red. masses --      2.5536                 1.9329                 1.3996
 Frc consts  --      1.0563                 0.9729                 0.7390
 IR Inten    --     22.7525                19.9979                 2.9098
 Raman Activ --     11.3578                 6.1087                 2.1676

                     19                     20                     21
                      A                      A                      A
 Frequencies --   1028.9916              1073.9169              1105.8341
 Red. masses --      5.3849                 2.3189                 1.4357
 Frc consts  --      3.3593                 1.5757                 1.0344
 IR Inten    --    176.8441                50.1326                39.3080
 Raman Activ --      2.2482                13.9852                 4.1111

                     22                     23                     24
                      A                      A                      A
 Frequencies --   1137.7120              1246.0145              1269.4812
 Red. masses --      2.0272                 1.3729                 1.1401
 Frc consts  --      1.5460                 1.2558                 1.0825
 IR Inten    --     33.4724                33.3791                26.7334
 Raman Activ --      5.4604                 4.0628                 5.9115

                     25                     26                     27
                      A                      A                      A
 Frequencies --   1280.3761              1371.6834              1373.8469
 Red. masses --      1.1112                10.0924                 1.3233
 Frc consts  --      1.0733                11.1880                 1.4716
 IR Inten    --     64.0313                 2.7971                39.7487
 Raman Activ --     14.7386                37.3609                11.9523

                     28                     29                     30
                      A                      A                      A
 Frequencies --   1391.7887              1421.2369              1445.2622
 Red. masses --      1.2151                 1.3929                 1.5185
 Frc consts  --      1.3868                 1.6576                 1.8688
 IR Inten    --      1.6297                14.0626                11.1265
 Raman Activ --      4.9816                 4.6344                 0.9170

                     31                     32                     33
                      A                      A                      A
 Frequencies --   1480.5528              1491.6205              1497.2744
 Red. masses --      1.0928                 1.0614                 1.0821
 Frc consts  --      1.4113                 1.3914                 1.4293
 IR Inten    --      9.0196                 3.6147                 7.7113
 Raman Activ --     10.3941                 6.9841                14.5912

                     34                     35                     36
                      A                      A                      A
 Frequencies --   2384.7523              2999.8163              3016.0880
 Red. masses --     12.8642                 1.0828                 1.0554
 Frc consts  --     43.1042                 5.7412                 5.6563
 IR Inten    --   1083.8446                39.7101                56.9293
 Raman Activ --      0.3174               348.0544               140.4598

                     37                     38                     39
                      A                      A                      A
 Frequencies --   3033.9877              3063.9471              3100.8699
 Red. masses --      1.0359                 1.1094                 1.1018
 Frc consts  --      5.6183                 6.1362                 6.2419
 IR Inten    --     33.7808                56.7747                54.1692
 Raman Activ --    351.6847                90.3894               120.8218

                     40                     41                     42
                      A                      A                      A
 Frequencies --   3108.1059              3777.5335              3843.1211
 Red. masses --      1.1021                 1.0657                 1.0671
 Frc consts  --      6.2728                 8.9602                 9.2861
 IR Inten    --     32.8473                82.5303                88.2335
 Raman Activ --    135.9407               129.9608               148.7542

 - Thermochemistry -
 -------------------
 Temperature   298.150 Kelvin.  Pressure   1.00000 Atm.
 Thermochemistry will use frequencies scaled by 0.9670.

 Molecular mass:   120.04226 amu.
 Principal axes and moments of inertia in atomic units:
                           1         2         3
     Eigenvalues --   529.325581974.425242146.88242
           X            0.92327  -0.36012  -0.13373
           Y           -0.04458  -0.44621   0.89382
           Z            0.38156   0.81927   0.42803
 This molecule is an asymmetric top.
 Rotational symmetry number  1.
 Warning -- assumption of classical behavior for rotation
           may cause significant error
 Rotational temperatures (Kelvin)      0.16363     0.04387     0.04034
 Rotational constants (GHZ):           3.40951     0.91406     0.84063
 Zero-point vibrational energy     317721.1 (Joules/Mol)
                                   75.93718 (Kcal/Mol)
 Warning -- explicit consideration of  14 degrees of freedom as
           vibrations may cause significant error
 Vibrational temperatures:     28.30    33.61    66.72   126.15   153.82
          (Kelvin)            223.61   312.19   347.13   374.46   504.47
                              578.47   668.82   723.15   887.16   925.13
                             1165.77  1285.93  1317.14  1431.63  1494.14
                             1538.54  1582.90  1733.58  1766.23  1781.38
                             1908.42  1911.43  1936.39  1977.36  2010.79
                             2059.89  2075.29  2083.15  3317.90  4173.64
                             4196.28  4221.18  4262.86  4314.23  4324.30
                             5255.67  5346.92

 Zero-point correction=                           0.121014 (Hartree/Particle)
 Thermal correction to Energy=                    0.131945
 Thermal correction to Enthalpy=                  0.132889
 Thermal correction to Gibbs Free Energy=         0.081636
 Sum of electronic and zero-point Energies=           -458.221892
 Sum of electronic and thermal Energies=              -458.210961
 Sum of electronic and thermal Enthalpies=            -458.210017
 Sum of electronic and thermal Free Energies=         -458.261270

                     E (Thermal)             CV                S
                      KCal/Mol        Cal/Mol-Kelvin    Cal/Mol-Kelvin
 Total                   82.797             34.998            107.871
 Electronic               0.000              0.000              0.000
 Translational            0.889              2.981             40.263
 Rotational               0.889              2.981             29.197
 Vibrational             81.019             29.036             38.412
 Vibration     1          0.593              1.986              6.667
 Vibration     2          0.593              1.985              6.326
 Vibration     3          0.595              1.979              4.966
 Vibration     4          0.601              1.958              3.711
 Vibration     5          0.606              1.944              3.324
 Vibration     6          0.620              1.897              2.605
 Vibration     7          0.646              1.815              1.984
 Vibration     8          0.658              1.777              1.793
 Vibration     9          0.668              1.745              1.660
 Vibration    10          0.728              1.574              1.163
 Vibration    11          0.768              1.466              0.955
 Vibration    12          0.822              1.328              0.752
 Vibration    13          0.858              1.244              0.652
 Vibration    14          0.976              0.997              0.422

 Normal termination of Gaussian 16 at Mon Jun 19 19:09:04 2023.
