 Gaussian 16, Revision C.01,
 Gaussian 16:  ES64L-G16RevC.01  3-Jul-2019

 ----------------------------------------------------------------------
 #p freq=raman scale=0.967 pop=(nbo,full,hirshfeld) guess=read geom=all
 check b3lyp/6-311+G(d,p) int=grid=ultrafine EmpiricalDispersion=GD3BJ
 SCRF=(Solvent=ethanol) scf=(xqc,intrep,maxconventionalcycle=350) nosym
 m
 ----------------------------------------------------------------------

 Structure from the checkpoint file:  "/scratch1/svicchi/G09-659905.pbs02/02-freq/TDA-H_dissociation-site_index-10-freq.chk"
 ------------------------------------
 TDA-H_dissociation-site_index-10.gjf
 ------------------------------------
 Charge = -1 Multiplicity = 1

                          Input orientation:
 ---------------------------------------------------------------------
 Center     Atomic      Atomic             Coordinates (Angstroms)
 Number     Number       Type             X           Y           Z
 ---------------------------------------------------------------------
      1          6           0       -3.563178    0.806497    0.110870
      2          6           0       -2.284019    1.634772    0.038705
      3          6           0       -1.004598    0.801656   -0.094764
      4          1           0       -2.204403    2.257024    0.941026
      5          1           0       -2.350231    2.324847   -0.811093
      6          7           0       -4.753047    1.669188    0.251912
      7          1           0       -3.476607    0.077326    0.931147
      8          1           0       -3.680868    0.229782   -0.812657
      9          1           0       -4.690316    2.193312    1.120989
     10          1           0       -5.591296    1.099971    0.327134
     11          7           0        0.170391    1.653526   -0.201567
     12          1           0       -1.162120    0.127905   -0.970234
     13          1           0       -0.989235    0.108477    0.778829
     14          1           0        0.980940    1.034863   -0.283369
 ---------------------------------------------------------------------

 SCF Done:  E(RB3LYP) =  -229.383408049     A.U. after    1 cycles

 Alpha  occ. eigenvalues --  -14.28814 -14.18642 -10.17750 -10.14742 -10.13637
 Alpha  occ. eigenvalues --   -0.87367  -0.78086  -0.70690  -0.60108  -0.54591
 Alpha  occ. eigenvalues --   -0.47755  -0.44760  -0.42152  -0.39268  -0.36773
 Alpha  occ. eigenvalues --   -0.33049  -0.31087  -0.30857  -0.24206  -0.20107
 Alpha  occ. eigenvalues --   -0.12982
 Alpha virt. eigenvalues --    0.01124   0.02265   0.03169   0.04286   0.05737
 Alpha virt. eigenvalues --    0.07208   0.07807   0.08342   0.08807   0.11487
 Alpha virt. eigenvalues --    0.11867   0.12887   0.14878   0.16120   0.16527

 Mulliken charges:
               1
     1  C   -0.343067
     2  C    0.057153
     3  C   -0.364476
     4  H    0.103921
     5  H    0.115323
     6  N   -0.510604
     7  H    0.117623
     8  H    0.127787
     9  H    0.224435
    10  H    0.240604
    11  N   -1.052748
    12  H    0.064298
    13  H    0.065768
    14  H    0.153984
 Sum of Mulliken charges =  -1.00000

 Dipole moment (field-independent basis, Debye):
    X=              0.3538    Y=            -10.7106    Z=              2.2662  Tot=             10.9534
 Quadrupole moment (field-independent basis, Debye-Ang):
   XX=            -40.2714   YY=            -61.7328   ZZ=            -39.1803
   XY=              4.6255   XZ=             -7.0389   YZ=              5.3795

  Exact polarizability:      93.086       5.089      89.643       0.313      -1.233      93.906
 Approx polarizability:      87.646       3.894      89.217       0.515      -0.195      90.834

 Summary of Natural Population Analysis:

                                       Natural Population
                Natural  -----------------------------------------------
    Atom  No    Charge         Core      Valence    Rydberg      Total
 -----------------------------------------------------------------------
      C    1   -0.17969      1.99929     4.16353    0.01687     6.17969
      C    2   -0.40253      1.99928     4.37480    0.02845     6.40253
      C    3   -0.18429      1.99935     4.16079    0.02416     6.18429
      H    4    0.17771      0.00000     0.81927    0.00302     0.82229
      H    5    0.17936      0.00000     0.81587    0.00477     0.82064
      N    6   -0.87431      1.99955     5.85383    0.02093     7.87431
      H    7    0.15590      0.00000     0.84090    0.00320     0.84410
      H    8    0.17606      0.00000     0.82163    0.00231     0.82394
      H    9    0.35176      0.00000     0.64542    0.00282     0.64824
      H   10    0.35599      0.00000     0.64158    0.00244     0.64401
      N   11   -1.26228      1.99961     6.22437    0.03829     8.26228
      H   12    0.10880      0.00000     0.88673    0.00447     0.89120
      H   13    0.10873      0.00000     0.88624    0.00503     0.89127
      H   14    0.28878      0.00000     0.70652    0.00469     0.71122
 =======================================================================
   * Total *   -1.00000      9.99707    31.84148    0.16145    42.00000

                      1                      2                      3
                      A                      A                      A
 Frequencies --     97.7770               133.6770               203.8921
 Red. masses --      1.9398                 2.8021                 2.7053
 Frc consts  --      0.0109                 0.0295                 0.0663
 IR Inten    --     10.5166                19.1772                20.1145
 Raman Activ --      5.3420                 0.4316                 1.9612

                      4                      5                      6
                      A                      A                      A
 Frequencies --    253.9409               291.3796               417.4430
 Red. masses --      1.2084                 1.0718                 4.7333
 Frc consts  --      0.0459                 0.0536                 0.4860
 IR Inten    --     82.5496               163.5926                 6.5961
 Raman Activ --      2.1519               114.8503                 7.1180

                      7                      8                      9
                      A                      A                      A
 Frequencies --    469.2449               765.7590               848.2408
 Red. masses --      3.1557                 1.0805                 1.1822
 Frc consts  --      0.4094                 0.3733                 0.5012
 IR Inten    --     76.8823                 3.4269               115.1474
 Raman Activ --      1.6321                 2.5510                 8.1732

                     10                     11                     12
                      A                      A                      A
 Frequencies --    906.8786               970.6950               981.4603
 Red. masses --      1.2835                 2.9447                 2.5148
 Frc consts  --      0.6219                 1.6348                 1.4273
 IR Inten    --     71.3979                71.9800                 6.4297
 Raman Activ --      6.8892                20.5904                 4.7426

                     13                     14                     15
                      A                      A                      A
 Frequencies --   1037.1900              1067.2404              1120.5629
 Red. masses --      3.4462                 2.7895                 1.4872
 Frc consts  --      2.1843                 1.8720                 1.1003
 IR Inten    --    151.4474                10.8186                 2.7704
 Raman Activ --     21.3186                15.4475                16.6715

                     16                     17                     18
                      A                      A                      A
 Frequencies --   1155.0924              1199.8201              1251.3261
 Red. masses --      1.2482                 1.3046                 1.3816
 Frc consts  --      0.9812                 1.1065                 1.2746
 IR Inten    --      8.2955                47.5384                14.6388
 Raman Activ --     12.5674                12.1694                11.5992

                     19                     20                     21
                      A                      A                      A
 Frequencies --   1279.0006              1307.7335              1326.0861
 Red. masses --      1.1869                 1.1307                 1.2729
 Frc consts  --      1.1440                 1.1392                 1.3189
 IR Inten    --      5.7051                 0.3384                 5.1185
 Raman Activ --     25.2811                25.2913                 7.0599

                     22                     23                     24
                      A                      A                      A
 Frequencies --   1395.9817              1414.0316              1477.8373
 Red. masses --      1.4353                 1.4625                 1.0866
 Frc consts  --      1.6480                 1.7230                 1.3982
 IR Inten    --     69.6131                20.9916                 6.2815
 Raman Activ --     29.7943                 1.4147                65.0135

                     25                     26                     27
                      A                      A                      A
 Frequencies --   1501.2905              1515.5117              1642.6038
 Red. masses --      1.0891                 1.0922                 1.0870
 Frc consts  --      1.4462                 1.4780                 1.7280
 IR Inten    --     24.1492                 1.3176                50.1918
 Raman Activ --     28.1923                30.4747                 4.5893

                     28                     29                     30
                      A                      A                      A
 Frequencies --   2727.4948              2763.7516              2948.9973
 Red. masses --      1.0997                 1.0497                 1.0724
 Frc consts  --      4.8199                 4.7239                 5.4950
 IR Inten    --    263.2725               546.7047               143.8188
 Raman Activ --    933.0871               540.7773               305.3889

                     31                     32                     33
                      A                      A                      A
 Frequencies --   2989.5264              3025.4157              3042.4530
 Red. masses --      1.0632                 1.0858                 1.0974
 Frc consts  --      5.5986                 5.8558                 5.9849
 IR Inten    --     72.1043                49.7206               152.9976
 Raman Activ --    332.8130               217.9067                84.4363

                     34                     35                     36
                      A                      A                      A
 Frequencies --   3387.5567              3481.5057              3553.7683
 Red. masses --      1.0729                 1.0503                 1.0923
 Frc consts  --      7.2541                 7.5004                 8.1278
 IR Inten    --    126.4398                 1.0568                 1.0870
 Raman Activ --    473.6226               265.4501               140.7821

 - Thermochemistry -
 -------------------
 Temperature   298.150 Kelvin.  Pressure   1.00000 Atm.
 Thermochemistry will use frequencies scaled by 0.9670.

 Molecular mass:    73.07657 amu.
 Principal axes and moments of inertia in atomic units:
                           1         2         3
     Eigenvalues --    88.16159 894.77793 944.64068
           X            0.99509   0.02130   0.09661
           Y           -0.01364   0.99676  -0.07927
           Z           -0.09798   0.07756   0.99216
 This molecule is an asymmetric top.
 Rotational symmetry number  1.
 Rotational temperatures (Kelvin)      0.98245     0.09680     0.09169
 Rotational constants (GHZ):          20.47083     2.01697     1.91051
 Zero-point vibrational energy     312056.3 (Joules/Mol)
                                   74.58325 (Kcal/Mol)
 Warning -- explicit consideration of   7 degrees of freedom as
           vibrations may cause significant error
 Vibrational temperatures:    136.04   185.98   283.67   353.31   405.40
          (Kelvin)            580.79   652.86  1065.40  1180.16  1261.74
                             1350.53  1365.50  1443.04  1484.85  1559.04
                             1607.08  1669.31  1740.97  1779.47  1819.45
                             1844.98  1942.23  1967.34  2056.11  2088.74
                             2108.53  2285.35  3794.76  3845.20  4102.93
                             4159.32  4209.25  4232.96  4713.10  4843.81
                             4944.35

 Zero-point correction=                           0.118856 (Hartree/Particle)
 Thermal correction to Energy=                    0.125735
 Thermal correction to Enthalpy=                  0.126680
 Thermal correction to Gibbs Free Energy=         0.088804
 Sum of electronic and zero-point Energies=           -229.264552
 Sum of electronic and thermal Energies=              -229.257673
 Sum of electronic and thermal Enthalpies=            -229.256728
 Sum of electronic and thermal Free Energies=         -229.294604

                     E (Thermal)             CV                S
                      KCal/Mol        Cal/Mol-Kelvin    Cal/Mol-Kelvin
 Total                   78.900             23.549             79.715
 Electronic               0.000              0.000              0.000
 Translational            0.889              2.981             38.783
 Rotational               0.889              2.981             25.813
 Vibrational             77.123             17.587             15.119
 Vibration     1          0.603              1.953              3.564
 Vibration     2          0.612              1.924              2.957
 Vibration     3          0.637              1.844              2.159
 Vibration     4          0.660              1.770              1.762
 Vibration     5          0.681              1.707              1.523
 Vibration     6          0.769              1.462              0.949
 Vibration     7          0.812              1.353              0.784

 Optimization completed.
    -- Stationary point found.
 Normal termination of Gaussian 16 at Fri Jun  2 11:41:00 2023.
