 Gaussian 16, Revision C.01,
 Gaussian 16:  ES64L-G16RevC.01  3-Jul-2019

 ----------------------------------------------------------------------
 #p freq=raman scale=0.967 pop=(nbo,full,hirshfeld) guess=read geom=all
 check b3lyp/6-311+G(d,p) int=grid=ultrafine EmpiricalDispersion=GD3BJ
 SCRF=(Solvent=ethanol) scf=(xqc,intrep,maxconventionalcycle=350) nosym
 m
 ----------------------------------------------------------------------

 Structure from the checkpoint file:  "/scratch1/svicchi/G09-659794.pbs02/02-freq/IMID-H_dissociation-site_index-1-freq.chk"
 ------------------------------------
 IMID-H_dissociation-site_index-1.gjf
 ------------------------------------
 Charge =  0 Multiplicity = 1

                          Input orientation:
 ---------------------------------------------------------------------
 Center     Atomic      Atomic             Coordinates (Angstroms)
 Number     Number       Type             X           Y           Z
 ---------------------------------------------------------------------
      1          6           0       -2.291839    3.424669    0.168361
      2          7           0       -1.342960    2.565852   -0.294406
      3          6           0       -1.979557    1.404363   -0.673520
      4          6           0       -3.309020    1.621866   -0.416389
      5          1           0       -1.444078    0.561859   -1.076435
      6          7           0       -3.494779    2.886317    0.109294
      7          1           0       -4.135840    0.948196   -0.577385
      8          1           0       -2.052428    4.412483    0.529521
      9          1           0       -0.351788    2.747312   -0.349578
 ---------------------------------------------------------------------

 SCF Done:  E(RB3LYP) =  -226.305004190     A.U. after    1 cycles

 Alpha  occ. eigenvalues --  -14.37608 -14.30681 -10.23239 -10.20633 -10.19139
 Alpha  occ. eigenvalues --   -1.02553  -0.88011  -0.75378  -0.62206  -0.60047
 Alpha  occ. eigenvalues --   -0.57000  -0.45044  -0.44516  -0.44245  -0.42027
 Alpha  occ. eigenvalues --   -0.29750  -0.29164  -0.24471
 Alpha virt. eigenvalues --    0.00550   0.00642   0.03067   0.03383   0.03483
 Alpha virt. eigenvalues --    0.05295   0.05563   0.05682   0.07174   0.09163
 Alpha virt. eigenvalues --    0.10572   0.10879   0.12458   0.14060   0.15276

 Mulliken charges:
               1
     1  C    0.001188
     2  N   -0.203229
     3  C   -0.143858
     4  C   -0.120559
     5  H    0.155797
     6  N   -0.319875
     7  H    0.145624
     8  H    0.156505
     9  H    0.328407
 Sum of Mulliken charges =  -0.00000

 Dipole moment (field-independent basis, Debye):
    X=              4.9184    Y=             -0.6190    Z=             -0.8768  Tot=              5.0341
 Quadrupole moment (field-independent basis, Debye-Ang):
   XX=            -51.0044   YY=            -29.1364   ZZ=            -31.4277
   XY=             17.0821   XZ=              1.8485   YZ=              0.0675

  Exact polarizability:      68.537       0.234      65.796      -3.545      10.112      44.701
 Approx polarizability:      84.884       0.397      76.915      -5.005      12.732      50.404

 Summary of Natural Population Analysis:

                                       Natural Population
                Natural  -----------------------------------------------
    Atom  No    Charge         Core      Valence    Rydberg      Total
 -----------------------------------------------------------------------
      C    1    0.19170      1.99941     3.77358    0.03530     5.80830
      N    2   -0.53423      1.99938     5.52075    0.01409     7.53423
      C    3   -0.08385      1.99921     4.06183    0.02280     6.08385
      C    4   -0.09608      1.99923     4.06778    0.02908     6.09608
      H    5    0.22690      0.00000     0.77173    0.00136     0.77310
      N    6   -0.55364      1.99948     5.52946    0.02470     7.55364
      H    7    0.20868      0.00000     0.79007    0.00125     0.79132
      H    8    0.20684      0.00000     0.79194    0.00123     0.79316
      H    9    0.43367      0.00000     0.56440    0.00193     0.56633
 =======================================================================
   * Total *   -0.00000      9.99671    25.87153    0.13176    36.00000

                      1                      2                      3
                      A                      A                      A
 Frequencies --    568.6584               649.6092               682.7655
 Red. masses --      1.7259                 2.0570                 2.5209
 Frc consts  --      0.3288                 0.5114                 0.6924
 IR Inten    --    150.5125                36.4615                 1.2289
 Raman Activ --      0.0384                 0.7559                 0.1500

                      4                      5                      6
                      A                      A                      A
 Frequencies --    745.0301               826.3816               869.0369
 Red. masses --      1.2310                 1.3907                 1.3537
 Frc consts  --      0.4026                 0.5596                 0.6023
 IR Inten    --     66.9048                42.0415                 3.3331
 Raman Activ --      6.3156                 2.1346                 5.6800

                      7                      8                      9
                      A                      A                      A
 Frequencies --    920.6170               948.8474              1073.5041
 Red. masses --      5.6200                 4.3764                 1.6222
 Frc consts  --      2.8063                 2.3215                 1.1014
 IR Inten    --      9.1441                 3.4469                76.9876
 Raman Activ --      2.0614                 3.0033                 5.1290

                     10                     11                     12
                      A                      A                      A
 Frequencies --   1099.5575              1141.2123              1165.5528
 Red. masses --      1.4795                 1.5786                 4.3131
 Frc consts  --      1.0539                 1.2113                 3.4523
 IR Inten    --     34.5633                 2.6296                 8.3244
 Raman Activ --      5.7921                 8.4536                52.4831

                     13                     14                     15
                      A                      A                      A
 Frequencies --   1282.2955              1353.7992              1432.5665
 Red. masses --      1.4680                 3.3513                 2.9360
 Frc consts  --      1.4222                 3.6189                 3.5501
 IR Inten    --      1.8994                 8.4686                25.5256
 Raman Activ --     29.3893                68.4146                42.3003

                     16                     17                     18
                      A                      A                      A
 Frequencies --   1499.2953              1553.1336              3240.5377
 Red. masses --      2.9973                 2.9501                 1.0937
 Frc consts  --      3.9697                 4.1928                 6.7670
 IR Inten    --     42.1767                17.1037                 6.7743
 Raman Activ --     44.9994                 9.5251               116.7695

                     19                     20                     21
                      A                      A                      A
 Frequencies --   3251.4719              3277.6993              3642.1582
 Red. masses --      1.0982                 1.1042                 1.0826
 Frc consts  --      6.8405                 6.9896                 8.4615
 IR Inten    --      1.0384                 0.5708               136.7611
 Raman Activ --    153.6764               217.6908               219.0610

 - Thermochemistry -
 -------------------
 Temperature   298.150 Kelvin.  Pressure   1.00000 Atm.
 Thermochemistry will use frequencies scaled by 0.9670.

 Molecular mass:    68.03745 amu.
 Principal axes and moments of inertia in atomic units:
                           1         2         3
     Eigenvalues --   186.03732 191.44732 377.48464
           X            0.95257   0.28026   0.11859
           Y           -0.22039   0.90404  -0.36625
           Z           -0.20986   0.32274   0.92293
 This molecule is an asymmetric top.
 Rotational symmetry number  1.
 Rotational temperatures (Kelvin)      0.46557     0.45242     0.22945
 Rotational constants (GHZ):           9.70096     9.42683     4.78097
 Zero-point vibrational energy     180596.3 (Joules/Mol)
                                   43.16356 (Kcal/Mol)
 Warning -- explicit consideration of   1 degrees of freedom as
           vibrations may cause significant error
 Vibrational temperatures:    791.17   903.80   949.93  1036.56  1149.74
          (Kelvin)           1209.09  1280.85  1320.13  1493.56  1529.81
                             1587.77  1621.63  1784.05  1883.54  1993.13
                             2085.97  2160.87  4508.55  4523.76  4560.25
                             5067.32

 Zero-point correction=                           0.068786 (Hartree/Particle)
 Thermal correction to Energy=                    0.072592
 Thermal correction to Enthalpy=                  0.073536
 Thermal correction to Gibbs Free Energy=         0.042506
 Sum of electronic and zero-point Energies=           -226.236219
 Sum of electronic and thermal Energies=              -226.232413
 Sum of electronic and thermal Enthalpies=            -226.231468
 Sum of electronic and thermal Free Energies=         -226.262498

                     E (Thermal)             CV                S
                      KCal/Mol        Cal/Mol-Kelvin    Cal/Mol-Kelvin
 Total                   45.552             13.785             65.307
 Electronic               0.000              0.000              0.000
 Translational            0.889              2.981             38.570
 Rotational               0.889              2.981             24.112
 Vibrational             43.774              7.823              2.625
 Vibration     1          0.905              1.140              0.544

 Optimization completed.
    -- Stationary point found.
 Normal termination of Gaussian 16 at Fri Jun  2 11:13:43 2023.
