 Gaussian 16, Revision C.01,
 Gaussian 16:  ES64L-G16RevC.01  3-Jul-2019

 ----------------------------------------------------------------------
 #p freq=raman scale=0.967 pop=(nbo,full,hirshfeld) guess=read geom=all
 check b3lyp/6-311+G(d,p) int=grid=ultrafine EmpiricalDispersion=GD3BJ
 SCRF=(Solvent=ethanol) scf=(xqc,intrep,maxconventionalcycle=350) nosym
 m
 ----------------------------------------------------------------------

 Structure from the checkpoint file:  "/scratch1/svicchi/G09-659822.pbs02/02-freq/pyrrolide-isolated-freq.chk"
 ----------------------
 pyrrolide-isolated.gjf
 ----------------------
 Charge = -1 Multiplicity = 1

                          Input orientation:
 ---------------------------------------------------------------------
 Center     Atomic      Atomic             Coordinates (Angstroms)
 Number     Number       Type             X           Y           Z
 ---------------------------------------------------------------------
      1          6           0       -2.854639   -1.740671   -0.000000
      2          6           0       -1.433764   -1.752793    0.000000
      3          6           0       -3.220658   -0.387722   -0.000000
      4          6           0       -1.044799   -0.406283    0.000000
      5          7           0       -2.125679    0.431487   -0.000000
      6          1           0       -4.222843    0.027279    0.000000
      7          1           0       -3.518523   -2.596251   -0.000000
      8          1           0       -0.784478   -2.619488    0.000000
      9          1           0       -0.035719   -0.008347   -0.000000
 ---------------------------------------------------------------------

 SCF Done:  E(RB3LYP) =  -209.748911752     A.U. after    1 cycles

 Alpha  occ. eigenvalues --  -14.24765 -10.13558 -10.13557 -10.11772 -10.11727
 Alpha  occ. eigenvalues --   -0.88847  -0.70111  -0.65980  -0.51299  -0.50178
 Alpha  occ. eigenvalues --   -0.46570  -0.35827  -0.34662  -0.34462  -0.33906
 Alpha  occ. eigenvalues --   -0.23138  -0.19473  -0.17306
 Alpha virt. eigenvalues --    0.01813   0.03752   0.04220   0.05314   0.05915
 Alpha virt. eigenvalues --    0.06641   0.07579   0.07714   0.08256   0.09708
 Alpha virt. eigenvalues --    0.11250   0.11567   0.12223   0.14997   0.15948

 Mulliken charges:
               1
     1  C   -0.257203
     2  C   -0.256983
     3  C   -0.220640
     4  C   -0.220921
     5  N   -0.415005
     6  H    0.090632
     7  H    0.094749
     8  H    0.094746
     9  H    0.090625
 Sum of Mulliken charges =  -1.00000

 Dipole moment (field-independent basis, Debye):
    X=             10.2357    Y=              0.9232    Z=              0.0000  Tot=             10.2773
 Quadrupole moment (field-independent basis, Debye-Ang):
   XX=            -55.3379   YY=            -39.9695   ZZ=            -38.1334
   XY=             -2.0210   XZ=             -0.0000   YZ=             -0.0000

  Exact polarizability:      94.876       0.018      97.103       0.000       0.000      67.263
 Approx polarizability:     104.362       0.027     107.714       0.000       0.000      67.934

 Summary of Natural Population Analysis:

                                       Natural Population
                Natural  -----------------------------------------------
    Atom  No    Charge         Core      Valence    Rydberg      Total
 -----------------------------------------------------------------------
      C    1   -0.39700      1.99916     4.37483    0.02301     6.39700
      C    2   -0.39699      1.99916     4.37482    0.02301     6.39699
      C    3   -0.13763      1.99925     4.10185    0.03654     6.13763
      C    4   -0.13764      1.99925     4.10185    0.03654     6.13764
      N    5   -0.66024      1.99950     5.62606    0.03468     7.66024
      H    6    0.17065      0.00000     0.82762    0.00174     0.82935
      H    7    0.19410      0.00000     0.80416    0.00175     0.80590
      H    8    0.19411      0.00000     0.80415    0.00175     0.80589
      H    9    0.17065      0.00000     0.82762    0.00174     0.82935
 =======================================================================
   * Total *   -1.00000      9.99631    25.84295    0.16073    36.00000

                      1                      2                      3
                      A                      A                      A
 Frequencies --    631.9145               678.3977               694.9656
 Red. masses --      3.3727                 2.4688                 1.4709
 Frc consts  --      0.7935                 0.6694                 0.4186
 IR Inten    --      0.0018               134.5943               147.1277
 Raman Activ --      0.7331                 7.1343                19.0789

                      4                      5                      6
                      A                      A                      A
 Frequencies --    720.4910               795.4821               826.4854
 Red. masses --      1.2746                 1.2687                 1.2968
 Frc consts  --      0.3898                 0.4730                 0.5219
 IR Inten    --      0.0005                41.7767                 0.0008
 Raman Activ --     73.1239                23.8074                 2.2596

                      7                      8                      9
                      A                      A                      A
 Frequencies --    889.1706               897.4998              1019.0126
 Red. masses --      4.0766                 5.7797                 1.3903
 Frc consts  --      1.8990                 2.7430                 0.8506
 IR Inten    --      7.9679                 0.3528                70.4896
 Raman Activ --      1.3973                 5.7519                 0.6495

                     10                     11                     12
                      A                      A                      A
 Frequencies --   1037.9448              1098.8378              1170.4991
 Red. masses --      1.4007                 1.5077                 6.6963
 Frc consts  --      0.8891                 1.0726                 5.4054
 IR Inten    --     29.0118                43.8763                 4.5100
 Raman Activ --      6.2951                13.1096               147.6438

                     13                     14                     15
                      A                      A                      A
 Frequencies --   1227.8338              1304.3413              1379.3218
 Red. masses --      2.4157                 1.8771                 4.6004
 Frc consts  --      2.1457                 1.8816                 5.1567
 IR Inten    --      2.5129                 0.9818                 2.4569
 Raman Activ --     20.9783                38.1322               149.5455

                     16                     17                     18
                      A                      A                      A
 Frequencies --   1454.9879              1462.7865              3151.6491
 Red. masses --      3.1939                 2.3803                 1.0862
 Frc consts  --      3.9837                 3.0008                 6.3568
 IR Inten    --      7.1539                53.2381                49.1047
 Raman Activ --     19.9344                22.9586               198.6594

                     19                     20                     21
                      A                      A                      A
 Frequencies --   3156.2285              3177.7668              3196.8455
 Red. masses --      1.0904                 1.0935                 1.1042
 Frc consts  --      6.3998                 6.5058                 6.6489
 IR Inten    --     24.3074                89.8457                33.6931
 Raman Activ --    221.3261                87.7356               464.0848

 - Thermochemistry -
 -------------------
 Temperature   298.150 Kelvin.  Pressure   1.00000 Atm.
 Thermochemistry will use frequencies scaled by 0.9670.

 Molecular mass:    66.03437 amu.
 Principal axes and moments of inertia in atomic units:
                           1         2         3
     Eigenvalues --   189.71174 194.57284 384.28458
           X            0.00756   0.99997  -0.00000
           Y            0.99997  -0.00756   0.00000
           Z           -0.00000   0.00000   1.00000
 This molecule is an asymmetric top.
 Rotational symmetry number  1.
 Rotational temperatures (Kelvin)      0.45656     0.44515     0.22539
 Rotational constants (GHZ):           9.51307     9.27540     4.69637
 Zero-point vibrational energy     173359.1 (Joules/Mol)
                                   41.43381 (Kcal/Mol)
 Warning -- explicit consideration of   1 degrees of freedom as
           vibrations may cause significant error
 Vibrational temperatures:    879.18   943.85   966.90  1002.42  1106.75
          (Kelvin)           1149.89  1237.10  1248.69  1417.75  1444.09
                             1528.81  1628.51  1708.28  1814.73  1919.05
                             2024.32  2035.17  4384.88  4391.25  4421.22
                             4447.76

 Zero-point correction=                           0.066029 (Hartree/Particle)
 Thermal correction to Energy=                    0.069857
 Thermal correction to Enthalpy=                  0.070801
 Thermal correction to Gibbs Free Energy=         0.039771
 Sum of electronic and zero-point Energies=           -209.682883
 Sum of electronic and thermal Energies=              -209.679055
 Sum of electronic and thermal Enthalpies=            -209.678111
 Sum of electronic and thermal Free Energies=         -209.709141

                     E (Thermal)             CV                S
                      KCal/Mol        Cal/Mol-Kelvin    Cal/Mol-Kelvin
 Total                   43.836             14.115             65.308
 Electronic               0.000              0.000              0.000
 Translational            0.889              2.981             38.481
 Rotational               0.889              2.981             24.165
 Vibrational             42.058              8.153              2.661
 Vibration     1          0.970              1.008              0.431

 Optimization completed.
    -- Stationary point found.
 Normal termination of Gaussian 16 at Fri Jun  2 11:12:55 2023.
