 Gaussian 16, Revision C.01,
 Gaussian 16:  ES64L-G16RevC.01  3-Jul-2019

 ----------------------------------------------------------------------
 #p freq=raman scale=0.967 pop=(nbo,full,hirshfeld) guess=read geom=all
 check b3lyp/6-311+G(d,p) int=grid=ultrafine EmpiricalDispersion=GD3BJ
 SCRF=(Solvent=ethanol) scf=(xqc,intrep,maxconventionalcycle=350) nosym
 m
 ----------------------------------------------------------------------

 Structure from the checkpoint file:  "/scratch1/svicchi/G09-659800.pbs02/02-freq/2CNPyr-isolated-freq.chk"
 -------------------
 2CNPyr-isolated.gjf
 -------------------
 Charge = -1 Multiplicity = 1

                          Input orientation:
 ---------------------------------------------------------------------
 Center     Atomic      Atomic             Coordinates (Angstroms)
 Number     Number       Type             X           Y           Z
 ---------------------------------------------------------------------
      1          6           0       -1.448275   -0.804200   -0.035683
      2          6           0       -0.442277    0.185303    0.032779
      3          6           0       -2.316745    1.263019    0.103924
      4          7           0       -0.980286    1.452434    0.118182
      5          6           0       -2.661876   -0.102393    0.011182
      6          1           0       -3.658585   -0.521147   -0.017636
      7          1           0       -2.992560    2.108276    0.160665
      8          1           0       -1.297749   -1.872052   -0.107969
      9          6           0        0.949728   -0.023813    0.019017
     10          7           0        2.099134   -0.210246    0.006479
 ---------------------------------------------------------------------

 SCF Done:  E(RB3LYP) =  -302.046811082     A.U. after    1 cycles

 Alpha  occ. eigenvalues --  -14.29309 -14.27293 -10.19854 -10.17887 -10.15906
 Alpha  occ. eigenvalues --  -10.14638 -10.13749  -0.92204  -0.89028  -0.72970
 Alpha  occ. eigenvalues --   -0.71362  -0.58331  -0.53772  -0.49123  -0.41263
 Alpha  occ. eigenvalues --   -0.38768  -0.38729  -0.36554  -0.35965  -0.33087
 Alpha  occ. eigenvalues --   -0.32227  -0.25524  -0.21821  -0.19480
 Alpha virt. eigenvalues --    0.00654   0.01140   0.02844   0.03251   0.04131
 Alpha virt. eigenvalues --    0.05068   0.05669   0.06251   0.06716   0.07619
 Alpha virt. eigenvalues --    0.09051   0.09204   0.09773   0.10648   0.12675

 Mulliken charges:
               1
     1  C   -0.154227
     2  C    0.963649
     3  C   -0.130411
     4  N   -0.333869
     5  C   -0.192535
     6  H    0.112057
     7  H    0.101659
     8  H    0.114291
     9  C   -1.057884
    10  N   -0.422730
 Sum of Mulliken charges =  -1.00000

 Dipole moment (field-independent basis, Debye):
    X=             -1.2465    Y=             -3.2485    Z=             -0.3163  Tot=              3.4938
 Quadrupole moment (field-independent basis, Debye-Ang):
   XX=            -59.5695   YY=            -49.2149   ZZ=            -46.6192
   XY=              3.4065   XZ=              0.2013   YZ=             -0.2418

  Exact polarizability:     165.004      -9.687      99.144      -0.590       2.320      64.899
 Approx polarizability:     193.988     -11.853     113.793      -0.721       2.999      69.756

 Summary of Natural Population Analysis:

                                       Natural Population
                Natural  -----------------------------------------------
    Atom  No    Charge         Core      Valence    Rydberg      Total
 -----------------------------------------------------------------------
      C    1   -0.28892      1.99910     4.27193    0.01790     6.28892
      C    2   -0.11948      1.99890     4.08322    0.03735     6.11948
      C    3   -0.07957      1.99926     4.04763    0.03267     6.07957
      N    4   -0.57775      1.99946     5.55466    0.02363     7.57775
      C    5   -0.36092      1.99917     4.34166    0.02010     6.36092
      H    6    0.20619      0.00000     0.79219    0.00163     0.79381
      H    7    0.18202      0.00000     0.81636    0.00162     0.81798
      H    8    0.20985      0.00000     0.78876    0.00139     0.79015
      C    9    0.32871      1.99925     3.63655    0.03549     5.67129
      N   10   -0.50012      1.99958     5.47626    0.02428     7.50012
 =======================================================================
   * Total *   -1.00000     13.99472    33.80922    0.19606    48.00000

                      1                      2                      3
                      A                      A                      A
 Frequencies --    163.5347               185.8370               536.8094
 Red. masses --      6.4955                 7.0348                 9.7134
 Frc consts  --      0.1023                 0.1431                 1.6492
 IR Inten    --      0.0096                 4.7779                13.3926
 Raman Activ --      0.5273                11.6794                 5.5731

                      4                      5                      6
                      A                      A                      A
 Frequencies --    578.1450               596.9262               631.7365
 Red. masses --      8.5809                 9.6203                 3.1617
 Frc consts  --      1.6899                 2.0197                 0.7434
 IR Inten    --      4.7437                10.6212                18.2257
 Raman Activ --     13.5401                 5.5008                 0.1203

                      7                      8                      9
                      A                      A                      A
 Frequencies --    682.7836               725.6627               801.8409
 Red. masses --      4.3984                 1.3008                 1.3153
 Frc consts  --      1.2081                 0.4036                 0.4982
 IR Inten    --      7.3271               147.7818                 3.4349
 Raman Activ --      0.5678                31.2033                24.6406

                     10                     11                     12
                      A                      A                      A
 Frequencies --    859.6079               908.9680               954.7660
 Red. masses --      1.3440                 5.7613                 3.2372
 Frc consts  --      0.5851                 2.8046                 1.7387
 IR Inten    --      7.2466                 2.1293                40.7097
 Raman Activ --      0.3236                 9.9091                31.8205

                     13                     14                     15
                      A                      A                      A
 Frequencies --   1038.4541              1082.2053              1198.8489
 Red. masses --      1.2795                 1.9945                 1.7235
 Frc consts  --      0.8130                 1.3763                 1.4594
 IR Inten    --     68.5506                14.7455                53.5064
 Raman Activ --     27.7241                64.6618                39.1365

                     16                     17                     18
                      A                      A                      A
 Frequencies --   1286.7606              1299.2956              1388.0258
 Red. masses --      6.0451                 5.5974                 3.6682
 Frc consts  --      5.8972                 5.5674                 4.1638
 IR Inten    --     34.8785                10.5375                86.6595
 Raman Activ --     95.4704                68.1469               462.7344

                     19                     20                     21
                      A                      A                      A
 Frequencies --   1437.8588              1484.6617              2248.6707
 Red. masses --      3.3552                 3.7990                12.6607
 Frc consts  --      4.0870                 4.9337                37.7189
 IR Inten    --     16.4410                47.5546               872.7021
 Raman Activ --     26.2187                24.1082              1954.0937

                     22                     23                     24
                      A                      A                      A
 Frequencies --   3172.3624              3200.5072              3219.2463
 Red. masses --      1.0903                 1.0922                 1.1025
 Frc consts  --      6.4646                 6.5915                 6.7316
 IR Inten    --     30.1651                30.7616                22.6194
 Raman Activ --    234.6427               222.6764               339.2456

 - Thermochemistry -
 -------------------
 Temperature   298.150 Kelvin.  Pressure   1.00000 Atm.
 Thermochemistry will use frequencies scaled by 0.9670.

 Molecular mass:    91.02962 amu.
 Principal axes and moments of inertia in atomic units:
                           1         2         3
     Eigenvalues --   196.63020 886.168751082.79888
           X            0.98663   0.16299  -0.00061
           Y           -0.16265   0.98435  -0.06779
           Z           -0.01045   0.06698   0.99770
 This molecule is an asymmetric top.
 Rotational symmetry number  1.
 Rotational temperatures (Kelvin)      0.44049     0.09774     0.07999
 Rotational constants (GHZ):           9.17835     2.03657     1.66674
 Zero-point vibrational energy     171687.8 (Joules/Mol)
                                   41.03437 (Kcal/Mol)
 Warning -- explicit consideration of   6 degrees of freedom as
           vibrations may cause significant error
 Vibrational temperatures:    227.53   258.55   746.86   804.37   830.50
          (Kelvin)            878.93   949.96  1009.61  1115.60  1195.97
                             1264.64  1328.36  1444.80  1505.67  1667.96
                             1790.27  1807.71  1931.16  2000.49  2065.61
                             3128.57  4413.70  4452.86  4478.93

 Zero-point correction=                           0.065392 (Hartree/Particle)
 Thermal correction to Energy=                    0.070812
 Thermal correction to Enthalpy=                  0.071756
 Thermal correction to Gibbs Free Energy=         0.036201
 Sum of electronic and zero-point Energies=           -301.981419
 Sum of electronic and thermal Energies=              -301.975999
 Sum of electronic and thermal Enthalpies=            -301.975055
 Sum of electronic and thermal Free Energies=         -302.010610

                     E (Thermal)             CV                S
                      KCal/Mol        Cal/Mol-Kelvin    Cal/Mol-Kelvin
 Total                   44.435             19.785             74.832
 Electronic               0.000              0.000              0.000
 Translational            0.889              2.981             39.438
 Rotational               0.889              2.981             26.737
 Vibrational             42.658             13.823              8.658
 Vibration     1          0.621              1.894              2.572
 Vibration     2          0.629              1.867              2.331
 Vibration     3          0.874              1.208              0.612
 Vibration     4          0.915              1.120              0.526
 Vibration     5          0.934              1.081              0.491
 Vibration     6          0.970              1.009              0.431

 Optimization completed.
    -- Stationary point found.
 Normal termination of Gaussian 16 at Fri Jun  2 11:23:26 2023.
