 Gaussian 16, Revision C.01,
 Gaussian 16:  ES64L-G16RevC.01  3-Jul-2019

 ----------------------------------------------------------------------
 #p freq=raman scale=0.967 pop=(nbo,full,hirshfeld) guess=read geom=all
 check b3lyp/6-311+G(d,p) int=grid=ultrafine EmpiricalDispersion=GD3BJ
 SCRF=(Solvent=ethanol) scf=(xqc,intrep,maxconventionalcycle=350) nosym
 m
 ----------------------------------------------------------------------

 Structure from the checkpoint file:  "/scratch1/svicchi/G09-659914.pbs02/02-freq/EG-H_dissociation-site_index-0-freq.chk"
 ----------------------------------
 EG-H_dissociation-site_index-0.gjf
 ----------------------------------
 Charge = -1 Multiplicity = 1

                          Input orientation:
 ---------------------------------------------------------------------
 Center     Atomic      Atomic             Coordinates (Angstroms)
 Number     Number       Type             X           Y           Z
 ---------------------------------------------------------------------
      1          8           0        2.102110   -0.751745    0.124587
      2          6           0        3.076781    0.211286    0.064546
      3          6           0        4.491600   -0.378131   -0.039919
      4          1           0        3.094489    0.888591    0.954478
      5          1           0        2.972298    0.903643   -0.807787
      6          8           0        5.465561    0.687577   -0.111004
      7          1           0        4.555968   -1.007410   -0.937260
      8          1           0        4.687330   -1.009138    0.836894
      9          1           0        6.342813    0.295948   -0.165737
 ---------------------------------------------------------------------

 SCF Done:  E(RB3LYP) =  -229.839282148     A.U. after    1 cycles

 Alpha  occ. eigenvalues --  -19.11389 -18.99217 -10.18683 -10.16477  -1.00755
 Alpha  occ. eigenvalues --   -0.87964  -0.68351  -0.55425  -0.49212  -0.44679
 Alpha  occ. eigenvalues --   -0.39241  -0.35303  -0.32809  -0.31902  -0.26896
 Alpha  occ. eigenvalues --   -0.17532  -0.17085
 Alpha virt. eigenvalues --    0.01339   0.02923   0.03846   0.04947   0.07819
 Alpha virt. eigenvalues --    0.08282   0.08526   0.13531   0.14734   0.17660
 Alpha virt. eigenvalues --    0.17743   0.18988   0.19763   0.21023   0.23523

 Mulliken charges:
               1
     1  O   -0.888166
     2  C   -0.175727
     3  C   -0.131833
     4  H    0.055707
     5  H    0.055345
     6  O   -0.431929
     7  H    0.123469
     8  H    0.123469
     9  H    0.269665
 Sum of Mulliken charges =  -1.00000

 Dipole moment (field-independent basis, Debye):
    X=            -10.0080    Y=              1.5744    Z=             -0.5874  Tot=             10.1481
 Quadrupole moment (field-independent basis, Debye-Ang):
   XX=            -46.6602   YY=            -34.8416   ZZ=            -29.1209
   XY=             -4.0191   XZ=             -1.3810   YZ=              0.7026

  Exact polarizability:      57.294       3.431      59.236      -0.505      -0.170      49.694
 Approx polarizability:      55.171       3.843      58.053      -0.344      -0.218      49.529

 Summary of Natural Population Analysis:

                                       Natural Population
                Natural  -----------------------------------------------
    Atom  No    Charge         Core      Valence    Rydberg      Total
 -----------------------------------------------------------------------
      O    1   -1.07011      1.99986     7.04949    0.02076     9.07011
      C    2   -0.02237      1.99935     3.98671    0.03631     6.02237
      C    3   -0.04802      1.99923     4.02594    0.02285     6.04802
      H    4    0.08696      0.00000     0.90817    0.00486     0.91304
      H    5    0.08699      0.00000     0.90814    0.00487     0.91301
      O    6   -0.78798      1.99979     6.77398    0.01421     8.78798
      H    7    0.14313      0.00000     0.85371    0.00316     0.85687
      H    8    0.14334      0.00000     0.85352    0.00314     0.85666
      H    9    0.46805      0.00000     0.52743    0.00451     0.53195
 =======================================================================
   * Total *   -1.00000      7.99823    25.88709    0.11468    34.00000

                      1                      2                      3
                      A                      A                      A
 Frequencies --    124.6779               186.8520               296.5512
 Red. masses --      2.5404                 1.1873                 3.9337
 Frc consts  --      0.0233                 0.0244                 0.2038
 IR Inten    --    128.4571                86.8995                37.5338
 Raman Activ --      2.6746                 0.8451                 0.1026

                      4                      5                      6
                      A                      A                      A
 Frequencies --    474.8948               808.1464               973.4262
 Red. masses --      7.6533                 1.1059                 2.6921
 Frc consts  --      1.0169                 0.4255                 1.5030
 IR Inten    --      3.2071                 4.1649                 6.7623
 Raman Activ --      6.8299                 1.3047                15.5756

                      7                      8                      9
                      A                      A                      A
 Frequencies --    989.0438              1089.5259              1148.6862
 Red. masses --      7.1730                 6.8435                 1.6625
 Frc consts  --      4.1341                 4.7863                 1.2925
 IR Inten    --    197.3707               394.5668                 0.1829
 Raman Activ --     16.0792                26.6597                 7.0432

                     10                     11                     12
                      A                      A                      A
 Frequencies --   1209.2992              1219.6077              1286.3787
 Red. masses --      1.2082                 1.1343                 1.0786
 Frc consts  --      1.0410                 0.9941                 1.0515
 IR Inten    --     32.3292                 0.3908                 4.7040
 Raman Activ --      7.4975                 0.2767                48.2358

                     13                     14                     15
                      A                      A                      A
 Frequencies --   1362.6168              1411.3658              1488.1740
 Red. masses --      1.2429                 1.4012                 1.0826
 Frc consts  --      1.3596                 1.6445                 1.4126
 IR Inten    --     31.8568                 9.2870                11.8956
 Raman Activ --      8.9276                19.3461                46.8209

                     16                     17                     18
                      A                      A                      A
 Frequencies --   1507.0370              2718.9810              2741.8880
 Red. masses --      1.0860                 1.0997                 1.0472
 Frc consts  --      1.4532                 4.7898                 4.6386
 IR Inten    --     14.9162               363.9275               521.4168
 Raman Activ --      2.6546               660.0584               567.0965

                     19                     20                     21
                      A                      A                      A
 Frequencies --   2977.5736              3016.3217              3832.7816
 Red. masses --      1.0531                 1.1097                 1.0670
 Frc consts  --      5.5012                 5.9485                 9.2352
 IR Inten    --    124.9787               142.6912                43.6656
 Raman Activ --    294.4217               170.4922               202.8622

 - Thermochemistry -
 -------------------
 Temperature   298.150 Kelvin.  Pressure   1.00000 Atm.
 Thermochemistry will use frequencies scaled by 0.9670.

 Molecular mass:    61.02895 amu.
 Principal axes and moments of inertia in atomic units:
                           1         2         3
     Eigenvalues --    55.69105 447.34507 480.41016
           X            0.95079  -0.30150   0.07144
           Y            0.30254   0.95313  -0.00387
           Z           -0.06693   0.02530   0.99744
 This molecule is an asymmetric top.
 Rotational symmetry number  1.
 Rotational temperatures (Kelvin)      1.55526     0.19362     0.18029
 Rotational constants (GHZ):          32.40630     4.03434     3.75667
 Zero-point vibrational energy     178514.7 (Joules/Mol)
                                   42.66603 (Kcal/Mol)
 Warning -- explicit consideration of   4 degrees of freedom as
           vibrations may cause significant error
 Vibrational temperatures:    173.46   259.97   412.59   660.72  1124.37
          (Kelvin)           1354.33  1376.05  1515.85  1598.16  1682.49
                             1696.84  1789.74  1895.81  1963.63  2070.49
                             2096.74  3782.91  3814.78  4142.69  4196.60
                             5332.54

 Zero-point correction=                           0.067993 (Hartree/Particle)
 Thermal correction to Energy=                    0.073116
 Thermal correction to Enthalpy=                  0.074060
 Thermal correction to Gibbs Free Energy=         0.040465
 Sum of electronic and zero-point Energies=           -229.771289
 Sum of electronic and thermal Energies=              -229.766166
 Sum of electronic and thermal Enthalpies=            -229.765222
 Sum of electronic and thermal Free Energies=         -229.798817

                     E (Thermal)             CV                S
                      KCal/Mol        Cal/Mol-Kelvin    Cal/Mol-Kelvin
 Total                   45.881             16.010             70.706
 Electronic               0.000              0.000              0.000
 Translational            0.889              2.981             38.246
 Rotational               0.889              2.981             23.996
 Vibrational             44.103             10.048              8.464
 Vibration     1          0.609              1.932              3.091
 Vibration     2          0.630              1.866              2.321
 Vibration     3          0.684              1.698              1.493
 Vibration     4          0.817              1.340              0.768

 Optimization completed.
    -- Stationary point found.
 Normal termination of Gaussian 16 at Fri Jun  2 11:14:36 2023.
