 Gaussian 16, Revision C.01,
 Gaussian 16:  ES64L-G16RevC.01  3-Jul-2019

 ----------------------------------------------------------------------
 #p freq=raman scale=0.967 pop=(nbo,full,hirshfeld) guess=read geom=all
 check b3lyp/6-311+G(d,p) int=grid=ultrafine EmpiricalDispersion=GD3BJ
 SCRF=(Solvent=ethanol) scf=(xqc,intrep,maxconventionalcycle=350) nosym
 m
 ----------------------------------------------------------------------

 Structure from the checkpoint file:  "/scratch1/svicchi/G09-659722.pbs02/02-freq/3ethyl45dimethylthiazolium-H_dissociation-site_index-1-freq.chk"
 ----------------------------------------------------------
 3ethyl45dimethylthiazolium-H_dissociation-site_index-1.gjf
 ----------------------------------------------------------
 Charge =  0 Multiplicity = 1

                          Input orientation:
 ---------------------------------------------------------------------
 Center     Atomic      Atomic             Coordinates (Angstroms)
 Number     Number       Type             X           Y           Z
 ---------------------------------------------------------------------
      1          7           0       -0.066017    0.103896    0.008484
      2          6           0        1.269707    0.093785    0.142682
      3          6           0       -0.630609    0.082909   -1.290780
      4          6           0        0.324531    0.054896   -2.252207
      5         16           0        1.900754    0.057983   -1.466907
      6          6           0       -0.914247    0.056128    1.217061
      7          6           0       -1.267194   -1.374210    1.611156
      8          1           0       -1.883686   -1.368609    2.513060
      9          1           0       -1.823387   -1.885060    0.822384
     10          1           0       -0.358187   -1.944151    1.815348
     11          1           0       -1.810689    0.649248    1.036216
     12          1           0       -0.345067    0.541960    2.007075
     13          6           0        0.181217    0.043603   -3.740220
     14          1           0        0.711805   -0.804834   -4.180273
     15          1           0        0.591997    0.954926   -4.183963
     16          6           0       -2.113048    0.131189   -1.481241
     17          1           0       -2.358649    0.074328   -2.540416
     18          1           0       -2.533424    1.063166   -1.092734
     19          1           0       -2.616714   -0.696905   -0.977336
     20          1           0       -0.866639   -0.028901   -4.033970
 ---------------------------------------------------------------------

 SCF Done:  E(RB3LYP) =  -726.424135509     A.U. after    1 cycles

 Alpha  occ. eigenvalues --  -88.87198 -14.38168 -10.22299 -10.21382 -10.20858
 Alpha  occ. eigenvalues --  -10.20264 -10.18177 -10.18017 -10.16832  -7.95885
 Alpha  occ. eigenvalues --   -5.92174  -5.91729  -5.91537  -0.99767  -0.84139
 Alpha  occ. eigenvalues --   -0.79223  -0.76278  -0.72305  -0.67968  -0.64524
 Alpha  occ. eigenvalues --   -0.59175  -0.53452  -0.49670  -0.46560  -0.45794
 Alpha  occ. eigenvalues --   -0.44151  -0.42778  -0.42006  -0.41179  -0.40894
 Alpha  occ. eigenvalues --   -0.39104  -0.37939  -0.36815  -0.36029  -0.34088
 Alpha  occ. eigenvalues --   -0.28174  -0.24279  -0.23851
 Alpha virt. eigenvalues --   -0.02480  -0.00021   0.01071   0.01609   0.01934
 Alpha virt. eigenvalues --    0.02433   0.02635   0.04042   0.04399   0.05104
 Alpha virt. eigenvalues --    0.05444   0.06503   0.06679   0.07691   0.07936

 Mulliken charges:
               1
     1  N    0.275341
     2  C   -0.441577
     3  C   -0.921855
     4  C    1.078665
     5  S   -0.046164
     6  C   -0.124822
     7  C   -0.409888
     8  H    0.156605
     9  H    0.138663
    10  H    0.153139
    11  H    0.163141
    12  H    0.174857
    13  C   -0.306102
    14  H    0.164311
    15  H    0.169798
    16  C   -0.869032
    17  H    0.155379
    18  H    0.179223
    19  H    0.160751
    20  H    0.149566
 Sum of Mulliken charges =  -0.00000

 Dipole moment (field-independent basis, Debye):
    X=             -5.7818    Y=             -0.1510    Z=             -2.3841  Tot=              6.2559
 Quadrupole moment (field-independent basis, Debye-Ang):
   XX=            -65.6415   YY=            -64.3017   ZZ=            -53.7031
   XY=             -0.5362   XZ=             -1.7401   YZ=             -0.4515

  Exact polarizability:     162.665       1.756     105.547      -7.243      -2.499     168.764
 Approx polarizability:     184.384       0.047     119.971     -10.025       0.346     187.974

 Summary of Natural Population Analysis:

                                       Natural Population
                Natural  -----------------------------------------------
    Atom  No    Charge         Core      Valence    Rydberg      Total
 -----------------------------------------------------------------------
      N    1   -0.45263      1.99922     5.42576    0.02765     7.45263
      C    2   -0.25351      1.99942     4.21396    0.04013     6.25351
      C    3    0.13726      1.99877     3.84269    0.02128     5.86274
      C    4   -0.21465      1.99883     4.19341    0.02241     6.21465
      S    5    0.36424      9.99888     5.59061    0.04626    15.63576
      C    6   -0.16843      1.99927     4.15166    0.01750     6.16843
      C    7   -0.58609      1.99936     4.57934    0.00740     6.58609
      H    8    0.21311      0.00000     0.78564    0.00125     0.78689
      H    9    0.20113      0.00000     0.79729    0.00158     0.79887
      H   10    0.20811      0.00000     0.79016    0.00173     0.79189
      H   11    0.20541      0.00000     0.79287    0.00172     0.79459
      H   12    0.21807      0.00000     0.78010    0.00182     0.78193
      C   13   -0.60076      1.99925     4.58997    0.01154     6.60076
      H   14    0.22241      0.00000     0.77618    0.00141     0.77759
      H   15    0.22246      0.00000     0.77613    0.00140     0.77754
      C   16   -0.60839      1.99927     4.60059    0.00853     6.60839
      H   17    0.22707      0.00000     0.77137    0.00156     0.77293
      H   18    0.22392      0.00000     0.77448    0.00159     0.77608
      H   19    0.22177      0.00000     0.77646    0.00177     0.77823
      H   20    0.21948      0.00000     0.77885    0.00167     0.78052
 =======================================================================
   * Total *    0.00000     25.99227    49.78753    0.22019    76.00000

                      1                      2                      3
                      A                      A                      A
 Frequencies --     79.0002                94.6872               101.7826
 Red. masses --      1.0679                 2.5917                 2.7415
 Frc consts  --      0.0039                 0.0137                 0.0167
 IR Inten    --      0.9919                 2.2197                 0.6550
 Raman Activ --      0.6567                 1.4336                 1.9160

                      4                      5                      6
                      A                      A                      A
 Frequencies --    175.8243               196.2834               210.6779
 Red. masses --      1.1176                 2.7524                 1.1181
 Frc consts  --      0.0204                 0.0625                 0.0292
 IR Inten    --      0.4486                 0.7651                 1.0964
 Raman Activ --      0.2207                 1.3276                 0.1445

                      7                      8                      9
                      A                      A                      A
 Frequencies --    267.1014               290.9112               337.1845
 Red. masses --      3.4426                 2.5441                 2.4067
 Frc consts  --      0.1447                 0.1269                 0.1612
 IR Inten    --      0.1510                 0.6461                 1.6180
 Raman Activ --      5.2875                 1.3146                 0.6158

                     10                     11                     12
                      A                      A                      A
 Frequencies --    374.5991               426.0269               514.9763
 Red. masses --      4.3271                 3.2697                 6.0163
 Frc consts  --      0.3578                 0.3496                 0.9401
 IR Inten    --     16.7112                 2.8089                 8.3324
 Raman Activ --      5.2363                 0.6190                 6.1606

                     13                     14                     15
                      A                      A                      A
 Frequencies --    530.5558               569.6754               623.0769
 Red. masses --      6.3060                 4.3577                 4.0051
 Frc consts  --      1.0458                 0.8332                 0.9161
 IR Inten    --      2.4272                 8.4793                 4.5514
 Raman Activ --     12.4134                27.3287                23.9849

                     16                     17                     18
                      A                      A                      A
 Frequencies --    653.5433               791.9112               794.6563
 Red. masses --      4.9315                 1.8192                 2.7830
 Frc consts  --      1.2410                 0.6722                 1.0354
 IR Inten    --      0.8829                 6.9400                 7.7741
 Raman Activ --      1.6168                 0.2767                17.1753

                     19                     20                     21
                      A                      A                      A
 Frequencies --    828.7965               939.1994               976.4225
 Red. masses --      2.4407                 2.1780                 1.8813
 Frc consts  --      0.9878                 1.1319                 1.0568
 IR Inten    --      3.8300                 2.0505                 9.3906
 Raman Activ --      8.5551                 2.4888                 9.1668

                     22                     23                     24
                      A                      A                      A
 Frequencies --   1049.4474              1066.0207              1075.0576
 Red. masses --      1.3862                 1.5131                 2.3959
 Frc consts  --      0.8995                 1.0131                 1.6315
 IR Inten    --      1.5887                 0.5433                 1.9613
 Raman Activ --      0.6833                 1.6717                 5.0163

                     25                     26                     27
                      A                      A                      A
 Frequencies --   1109.0855              1113.9070              1125.8623
 Red. masses --      1.8925                 2.1088                 1.9869
 Frc consts  --      1.3716                 1.5416                 1.4839
 IR Inten    --      8.8049                16.4974                 0.9946
 Raman Activ --      4.7521                 6.8615                 6.1940

                     28                     29                     30
                      A                      A                      A
 Frequencies --   1221.6770              1280.5854              1324.4322
 Red. masses --      3.0858                 2.3157                 3.1018
 Frc consts  --      2.7135                 2.2375                 3.2057
 IR Inten    --      9.7533                 0.7589                93.5945
 Raman Activ --      0.9633                 6.6188                 8.9623

                     31                     32                     33
                      A                      A                      A
 Frequencies --   1382.3716              1395.3944              1407.3045
 Red. masses --      1.4508                 1.9731                 1.3236
 Frc consts  --      1.6334                 2.2635                 1.5445
 IR Inten    --     16.0826                 8.5842                 8.4563
 Raman Activ --     12.7814                41.0437                11.5314

                     34                     35                     36
                      A                      A                      A
 Frequencies --   1412.7666              1425.2539              1471.1931
 Red. masses --      1.3099                 1.2222                 1.0410
 Frc consts  --      1.5404                 1.4628                 1.3275
 IR Inten    --      0.6716                 1.1225                13.6683
 Raman Activ --     28.4469                20.7424                22.5421

                     37                     38                     39
                      A                      A                      A
 Frequencies --   1475.7700              1476.4125              1483.0944
 Red. masses --      1.0454                 1.0456                 1.0531
 Frc consts  --      1.3414                 1.3428                 1.3648
 IR Inten    --      8.9724                11.5530                17.0609
 Raman Activ --      3.3660                17.5457                20.5687

                     40                     41                     42
                      A                      A                      A
 Frequencies --   1483.4327              1491.0377              1505.7609
 Red. masses --      1.0561                 1.0591                 1.0908
 Frc consts  --      1.3693                 1.3872                 1.4572
 IR Inten    --      0.7540                16.0504                15.7194
 Raman Activ --     38.8368                41.5259                 8.3160

                     43                     44                     45
                      A                      A                      A
 Frequencies --   1656.9562              3030.7100              3035.4565
 Red. masses --      7.1583                 1.0370                 1.0371
 Frc consts  --     11.5794                 5.6118                 5.6301
 IR Inten    --     13.3247                50.8485                19.9439
 Raman Activ --    116.2380               403.4368                21.6210

                     46                     47                     48
                      A                      A                      A
 Frequencies --   3036.9864              3080.1452              3083.5255
 Red. masses --      1.0382                 1.1010                 1.0640
 Frc consts  --      5.6417                 6.1542                 5.9607
 IR Inten    --     39.5984                18.9084                21.4359
 Raman Activ --    904.6103               206.4631               252.8993

                     49                     50                     51
                      A                      A                      A
 Frequencies --   3086.9220              3101.9635              3107.3098
 Red. masses --      1.0993                 1.1023                 1.0988
 Frc consts  --      6.1721                 6.2491                 6.2509
 IR Inten    --     19.2631                22.3024                53.8615
 Raman Activ --    188.7945               164.2869               191.1061

                     52                     53                     54
                      A                      A                      A
 Frequencies --   3111.2109              3131.8754              3137.8356
 Red. masses --      1.1002                 1.0976                 1.1053
 Frc consts  --      6.2745                 6.3429                 6.4120
 IR Inten    --     23.4156                35.1905                16.4373
 Raman Activ --    154.4580               136.8519                99.9181

 - Thermochemistry -
 -------------------
 Temperature   298.150 Kelvin.  Pressure   1.00000 Atm.
 Thermochemistry will use frequencies scaled by 0.9670.

 Molecular mass:   141.06122 amu.
 Principal axes and moments of inertia in atomic units:
                           1         2         3
     Eigenvalues --   827.810601581.619342220.67973
           X           -0.48691   0.87136  -0.06047
           Y           -0.15409  -0.01754   0.98790
           Z            0.85975   0.49034   0.14280
 This molecule is an asymmetric top.
 Rotational symmetry number  1.
 Warning -- assumption of classical behavior for rotation
           may cause significant error
 Rotational temperatures (Kelvin)      0.10463     0.05476     0.03900
 Rotational constants (GHZ):           2.18014     1.14107     0.81270
 Zero-point vibrational energy     423116.7 (Joules/Mol)
                                  101.12732 (Kcal/Mol)
 Warning -- explicit consideration of  15 degrees of freedom as
           vibrations may cause significant error
 Vibrational temperatures:    109.91   131.74   141.61   244.62   273.09
          (Kelvin)            293.12   371.62   404.74   469.12   521.18
                              592.73   716.49   738.16   792.59   866.89
                              909.27  1101.78  1105.60  1153.10  1306.71
                             1358.49  1460.09  1483.15  1495.72  1543.07
                             1549.78  1566.41  1699.72  1781.68  1842.68
                             1923.29  1941.41  1957.98  1965.58  1982.95
                             2046.87  2053.23  2054.13  2063.43  2063.90
                             2074.48  2094.96  2305.32  4216.62  4223.22
                             4225.35  4285.40  4290.10  4294.83  4315.75
                             4323.19  4328.62  4357.37  4365.66

 Zero-point correction=                           0.161157 (Hartree/Particle)
 Thermal correction to Energy=                    0.171554
 Thermal correction to Enthalpy=                  0.172498
 Thermal correction to Gibbs Free Energy=         0.125481
 Sum of electronic and zero-point Energies=           -726.262979
 Sum of electronic and thermal Energies=              -726.252581
 Sum of electronic and thermal Enthalpies=            -726.251637
 Sum of electronic and thermal Free Energies=         -726.298655

                     E (Thermal)             CV                S
                      KCal/Mol        Cal/Mol-Kelvin    Cal/Mol-Kelvin
 Total                  107.652             37.887             98.958
 Electronic               0.000              0.000              0.000
 Translational            0.889              2.981             40.743
 Rotational               0.889              2.981             29.454
 Vibrational            105.874             31.925             28.760
 Vibration     1          0.599              1.965              3.981
 Vibration     2          0.602              1.955              3.626
 Vibration     3          0.604              1.950              3.485
 Vibration     4          0.625              1.879              2.435
 Vibration     5          0.633              1.854              2.230
 Vibration     6          0.639              1.835              2.099
 Vibration     7          0.667              1.749              1.673
 Vibration     8          0.681              1.708              1.526
 Vibration     9          0.710              1.623              1.280
 Vibration    10          0.736              1.550              1.112
 Vibration    11          0.776              1.444              0.920
 Vibration    12          0.853              1.254              0.663
 Vibration    13          0.868              1.221              0.626
 Vibration    14          0.906              1.138              0.542
 Vibration    15          0.961              1.026              0.445

 Normal termination of Gaussian 16 at Fri Jun  2 11:52:41 2023.
