 Gaussian 16, Revision C.02,
 Gaussian 16:  ES64L-G16RevC.02  7-Dec-2021

 ----------------------------------------------------------------------
 #p freq=raman scale=0.967 guess=read geom=allcheck b3lyp/6-311+G(d,p)
 int=grid=ultrafine EmpiricalDispersion=GD3BJ SCRF=(Solvent=ethanol) sc
 f=(xqc,intrep,maxconventionalcycle=350) nosymm
 ----------------------------------------------------------------------

 Structure from the checkpoint file:  "/scratch1/svicchi/G09-1911997.pbs02/02-freq/PyrOH-CO2_binding-site_index-5-freq.chk"
 ------------------------------
 PyrOH-CO2_binding-site_index-5
 ------------------------------
 Charge = -1 Multiplicity = 1

                          Input orientation:
 ---------------------------------------------------------------------
 Center     Atomic      Atomic             Coordinates (Angstroms)
 Number     Number       Type             X           Y           Z
 ---------------------------------------------------------------------
      1          6           0       -0.385300    0.879901    0.067978
      2          6           0       -1.132134   -0.192394   -0.339628
      3          6           0       -0.235698   -1.244646   -0.736072
      4          1           0       -2.210802   -0.235400   -0.358347
      5          6           0        1.037887   -0.763649   -0.550796
      6          7           0        0.961776    0.535816   -0.059024
      7          1           0       -0.658511    1.852699    0.435756
      8          8           0        2.230352   -1.347544   -0.769143
      9          1           0       -0.491710   -2.224316   -1.107605
     10          1           0        2.893306   -0.642543   -0.502071
     11          6           0        2.096792    1.382029    0.261498
     12          8           0        1.846385    2.514149    0.688629
     13          8           0        3.222632    0.838905    0.057148
 ---------------------------------------------------------------------

 SCF Done:  E(RB3LYP) =  -473.697830576     A.U. after    1 cycles

 Alpha  occ. eigenvalues --  -19.13360 -19.08291 -19.07539 -14.35068 -10.29859
 Alpha  occ. eigenvalues --  -10.24538 -10.17875 -10.15584 -10.14571  -1.07505
 Alpha  occ. eigenvalues --   -1.04281  -0.96542  -0.95157  -0.77718  -0.70527
 Alpha  occ. eigenvalues --   -0.61125  -0.58193  -0.55873  -0.48929  -0.46363
 Alpha  occ. eigenvalues --   -0.45642  -0.44274  -0.42571  -0.40834  -0.39529
 Alpha  occ. eigenvalues --   -0.38346  -0.36285  -0.33991  -0.28064  -0.27239
 Alpha  occ. eigenvalues --   -0.25859  -0.24629  -0.19102
 Alpha virt. eigenvalues --    0.00909   0.01279   0.02806   0.03375   0.04685
 Alpha virt. eigenvalues --    0.05451   0.05706   0.06704   0.06789   0.08742
 Alpha virt. eigenvalues --    0.08822   0.09387   0.10095   0.10755   0.11608

 Mulliken charges:
               1
     1  C   -0.123185
     2  C   -0.329959
     3  C   -0.069392
     4  H    0.131302
     5  C   -0.049318
     6  N   -0.132451
     7  H    0.145222
     8  O   -0.394717
     9  H    0.123744
    10  H    0.316973
    11  C    0.488375
    12  O   -0.533253
    13  O   -0.573342
 Sum of Mulliken charges =  -1.00000

 Dipole moment (field-independent basis, Debye):
    X=            -10.3490    Y=             -4.7963    Z=             -0.5583  Tot=             11.4200
 Quadrupole moment (field-independent basis, Debye-Ang):
   XX=            -82.9312   YY=            -74.2368   ZZ=            -58.3834
   XY=            -12.2100   XZ=             -1.9133   YZ=             -5.4576

  Exact polarizability:     125.154       5.416     118.875       2.169      19.668      74.322
 Approx polarizability:     140.160       0.555     136.267       0.346      23.919      82.078

                      1                      2                      3
                      A                      A                      A
 Frequencies --     99.4696               132.5583               275.6667
 Red. masses --     12.5596                 5.9793                 6.9651
 Frc consts  --      0.0732                 0.0619                 0.3118
 IR Inten    --      1.2758                 2.4471                19.3857
 Raman Activ --      0.4902                 3.2444                 1.3929

                      4                      5                      6
                      A                      A                      A
 Frequencies --    293.9828               391.3729               474.8200
 Red. masses --      6.8902                 6.6559                10.3284
 Frc consts  --      0.3509                 0.6007                 1.3720
 IR Inten    --      0.4532                25.0754                 0.4799
 Raman Activ --      3.0480                 1.5519                 6.2159

                      7                      8                      9
                      A                      A                      A
 Frequencies --    583.0715               611.9400               630.1934
 Red. masses --      5.7426                 3.6306                 1.8777
 Frc consts  --      1.1503                 0.8010                 0.4394
 IR Inten    --     12.9413                 6.4373                22.9237
 Raman Activ --      6.9482                 0.8252                18.2409

                     10                     11                     12
                      A                      A                      A
 Frequencies --    691.1037               710.0079               742.1384
 Red. masses --      1.3863                 8.0260                 1.9621
 Frc consts  --      0.3901                 2.3838                 0.6367
 IR Inten    --    160.6627                60.7405                23.5052
 Raman Activ --      6.0647                18.1855                18.8415

                     13                     14                     15
                      A                      A                      A
 Frequencies --    794.9246               804.7505               817.2475
 Red. masses --      7.4461                11.6130                 1.0971
 Frc consts  --      2.7722                 4.4312                 0.4317
 IR Inten    --     28.4170               214.1910               147.3036
 Raman Activ --      0.0437                13.7024                 1.4462

                     16                     17                     18
                      A                      A                      A
 Frequencies --    858.5791               905.7752              1022.9027
 Red. masses --      1.2643                 4.1366                 1.4068
 Frc consts  --      0.5491                 1.9995                 0.8672
 IR Inten    --      3.1958                15.9478                17.1897
 Raman Activ --      7.1938                22.4496                 4.0271

                     19                     20                     21
                      A                      A                      A
 Frequencies --   1061.0338              1146.8925              1213.9027
 Red. masses --      1.5844                 3.0147                 2.6575
 Frc consts  --      1.0509                 2.3364                 2.3072
 IR Inten    --     78.3921               122.0039               140.7242
 Raman Activ --     21.8587                 7.2054                22.9642

                     22                     23                     24
                      A                      A                      A
 Frequencies --   1251.5822              1278.7171              1338.0872
 Red. masses --      2.8208                 4.9704                 5.9421
 Frc consts  --      2.6034                 4.7884                 6.2685
 IR Inten    --    337.4051               240.3149               262.9596
 Raman Activ --    121.2434                 6.3786                73.2709

                     25                     26                     27
                      A                      A                      A
 Frequencies --   1383.9920              1502.5021              1526.8536
 Red. masses --      1.9871                 3.1363                 3.2256
 Frc consts  --      2.2426                 4.1715                 4.4305
 IR Inten    --     64.2216               695.3430               193.4908
 Raman Activ --     24.5464                76.3785                89.5645

                     28                     29                     30
                      A                      A                      A
 Frequencies --   1599.1902              1706.3436              3049.1737
 Red. masses --      6.4562                 5.0052                 1.0702
 Frc consts  --      9.7280                 8.5863                 5.8625
 IR Inten    --    526.1324               732.1406              1183.8935
 Raman Activ --     19.9851                34.5772               156.8005

                     31                     32                     33
                      A                      A                      A
 Frequencies --   3223.4040              3240.8646              3284.2331
 Red. masses --      1.0917                 1.0985                 1.0992
 Frc consts  --      6.6833                 6.7981                 6.9857
 IR Inten    --     14.7900                 5.7154                 4.7062
 Raman Activ --    172.2744               268.7616               159.9343

 - Thermochemistry -
 -------------------
 Temperature   298.150 Kelvin.  Pressure   1.00000 Atm.
 Thermochemistry will use frequencies scaled by 0.9670.

 Molecular mass:   126.01912 amu.
 Principal axes and moments of inertia in atomic units:
                           1         2         3
     Eigenvalues --   619.556941058.810591678.36708
           X            0.73977  -0.67285  -0.00161
           Y            0.62900   0.69240  -0.35348
           Z            0.23895   0.26049   0.93544
 This molecule is an asymmetric top.
 Rotational symmetry number  1.
 Warning -- assumption of classical behavior for rotation
           may cause significant error
 Rotational temperatures (Kelvin)      0.13980     0.08180     0.05161
 Rotational constants (GHZ):           2.91295     1.70450     1.07530
 Zero-point vibrational energy     223533.7 (Joules/Mol)
                                   53.42584 (Kcal/Mol)
 Warning -- explicit consideration of   9 degrees of freedom as
           vibrations may cause significant error
 Vibrational temperatures:    138.39   184.43   383.53   409.02   544.52
          (Kelvin)            660.62   811.23   851.39   876.79   961.53
                              987.83  1032.54  1105.98  1119.65  1137.03
                             1194.54  1260.20  1423.16  1476.21  1595.67
                             1688.90  1741.32  1779.08  1861.68  1925.54
                             2090.43  2124.31  2224.95  2374.03  4242.31
                             4484.71  4509.01  4569.34

 Zero-point correction=                           0.085139 (Hartree/Particle)
 Thermal correction to Energy=                    0.092305
 Thermal correction to Enthalpy=                  0.093249
 Thermal correction to Gibbs Free Energy=         0.053253
 Sum of electronic and zero-point Energies=           -473.612691
 Sum of electronic and thermal Energies=              -473.605526
 Sum of electronic and thermal Enthalpies=            -473.604582
 Sum of electronic and thermal Free Energies=         -473.644578

                     E (Thermal)             CV                S
                      KCal/Mol        Cal/Mol-Kelvin    Cal/Mol-Kelvin
 Total                   57.922             27.213             84.179
 Electronic               0.000              0.000              0.000
 Translational            0.889              2.981             40.407
 Rotational               0.889              2.981             28.489
 Vibrational             56.145             21.251             15.283
 Vibration     1          0.603              1.952              3.530
 Vibration     2          0.611              1.925              2.973
 Vibration     3          0.672              1.734              1.618
 Vibration     4          0.683              1.703              1.508
 Vibration     5          0.749              1.516              1.045
 Vibration     6          0.817              1.341              0.769
 Vibration     7          0.920              1.110              0.516
 Vibration     8          0.949              1.049              0.464
 Vibration     9          0.968              1.012              0.434

 Optimization completed.
    -- Stationary point found.
 Normal termination of Gaussian 16 at Tue Jan 23 12:38:14 2024.
