 Gaussian 16, Revision C.02,
 Gaussian 16:  ES64L-G16RevC.02  7-Dec-2021

 ----------------------------------------------------------------------
 #p freq=raman scale=0.967 guess=read geom=allcheck b3lyp/6-311+G(d,p)
 int=grid=ultrafine EmpiricalDispersion=GD3BJ SCRF=(Solvent=ethanol) sc
 f=(xqc,intrep,maxconventionalcycle=350) nosymm
 ----------------------------------------------------------------------

 Structure from the checkpoint file:  "/scratch1/svicchi/G09-1868870.pbs02/02-freq/IMIDEtOH-isolated-freq.chk"
 -----------------
 IMIDEtOH-isolated
 -----------------
 Charge = -1 Multiplicity = 1

                          Input orientation:
 ---------------------------------------------------------------------
 Center     Atomic      Atomic             Coordinates (Angstroms)
 Number     Number       Type             X           Y           Z
 ---------------------------------------------------------------------
      1          6           0       -2.405186    3.350133    0.488998
      2          7           0       -1.887060    3.166927   -0.745309
      3          6           0       -2.211694    1.864086   -1.047299
      4          6           0       -2.907792    1.316432    0.019448
      5          1           0       -1.929237    1.408272   -1.988113
      6          7           0       -3.031930    2.270301    1.004877
      7          1           0       -3.315398    0.319970    0.133833
      8          6           0       -2.290684    4.654540    1.226556
      9          1           0       -2.710273    4.535385    2.229551
     10          1           0       -1.235132    4.927670    1.351519
     11          6           0       -2.974239    5.830618    0.539862
     12          1           0       -2.728090    6.762365    1.064894
     13          1           0       -2.619001    5.910375   -0.493091
     14          8           0       -4.397222    5.625244    0.557862
     15          1           0       -4.808463    6.324320    0.039473
 ---------------------------------------------------------------------

 SCF Done:  E(RB3LYP) =  -379.722483157     A.U. after    1 cycles

 Alpha  occ. eigenvalues --  -19.11964 -14.25348 -14.25254 -10.20671 -10.16775
 Alpha  occ. eigenvalues --  -10.15486 -10.14235 -10.14101  -1.01663  -0.94096
 Alpha  occ. eigenvalues --   -0.78914  -0.75993  -0.67562  -0.60539  -0.53879
 Alpha  occ. eigenvalues --   -0.51318  -0.49725  -0.45884  -0.43716  -0.40214
 Alpha  occ. eigenvalues --   -0.39865  -0.36816  -0.35000  -0.34137  -0.32842
 Alpha  occ. eigenvalues --   -0.27603  -0.26506  -0.22774  -0.22441  -0.18126
 Alpha virt. eigenvalues --    0.00880   0.02375   0.03133   0.03795   0.04843
 Alpha virt. eigenvalues --    0.05445   0.06037   0.06698   0.06963   0.08048
 Alpha virt. eigenvalues --    0.08673   0.09342   0.09713   0.10024   0.11296

 Mulliken charges:
               1
     1  C    0.041505
     2  N   -0.346603
     3  C   -0.141428
     4  C   -0.175619
     5  H    0.094733
     6  N   -0.361264
     7  H    0.094833
     8  C   -0.435903
     9  H    0.157156
    10  H    0.146232
    11  C   -0.243844
    12  H    0.134566
    13  H    0.147637
    14  O   -0.389928
    15  H    0.277927
 Sum of Mulliken charges =  -1.00000

 Dipole moment (field-independent basis, Debye):
    X=             13.0366    Y=            -11.3243    Z=             -1.4605  Tot=             17.3299
 Quadrupole moment (field-independent basis, Debye-Ang):
   XX=            -93.3162   YY=            -69.8291   ZZ=            -59.1919
   XY=             29.4810   XZ=             10.6066   YZ=             -2.7073

  Exact polarizability:      98.415       8.245     128.224     -10.834       6.036     115.382
 Approx polarizability:     106.400      11.772     133.193     -14.052       3.892     127.414

                      1                      2                      3
                      A                      A                      A
 Frequencies --     35.6459                90.1292               166.2375
 Red. masses --      4.9156                 5.4924                 1.8642
 Frc consts  --      0.0037                 0.0263                 0.0304
 IR Inten    --      2.2236                 1.3452                93.8039
 Raman Activ --      6.4162                 3.4788                 2.3785

                      4                      5                      6
                      A                      A                      A
 Frequencies --    217.8452               283.2976               368.5536
 Red. masses --      1.2625                 5.8096                 2.0343
 Frc consts  --      0.0353                 0.2747                 0.1628
 IR Inten    --    109.1031                 4.7035                16.8104
 Raman Activ --      0.5896                 3.5021                 1.6181

                      7                      8                      9
                      A                      A                      A
 Frequencies --    483.7610               657.2024               663.1372
 Red. masses --      3.1504                 3.7340                 3.7242
 Frc consts  --      0.4344                 0.9502                 0.9649
 IR Inten    --     41.6712                 8.0623                 2.2192
 Raman Activ --      2.2224                 5.8933                 1.7567

                     10                     11                     12
                      A                      A                      A
 Frequencies --    741.0200               746.4472               808.0801
 Red. masses --      1.2011                 4.4626                 1.3567
 Frc consts  --      0.3886                 1.4650                 0.5220
 IR Inten    --    118.3912                 6.9130                 0.2977
 Raman Activ --     35.3821                 3.0781                21.9226

                     13                     14                     15
                      A                      A                      A
 Frequencies --    862.8703               944.5182               950.8524
 Red. masses --      2.7381                 3.7698                 3.6891
 Frc consts  --      1.2011                 1.9815                 1.9651
 IR Inten    --     37.7871                14.9615                 4.5457
 Raman Activ --      5.8770                 5.4549                 2.7587

                     16                     17                     18
                      A                      A                      A
 Frequencies --    995.2501              1022.7783              1064.4763
 Red. masses --      2.4168                 2.0413                 3.1041
 Frc consts  --      1.4105                 1.2581                 2.0723
 IR Inten    --      3.0550                32.2900               110.8176
 Raman Activ --      9.4713                 6.4642                 6.9390

                     19                     20                     21
                      A                      A                      A
 Frequencies --   1110.1739              1136.8682              1177.1818
 Red. masses --      1.7806                 1.7988                 1.2752
 Frc consts  --      1.2930                 1.3698                 1.0412
 IR Inten    --      6.3852                38.3359                12.0488
 Raman Activ --     42.7085                14.3664                16.5644

                     22                     23                     24
                      A                      A                      A
 Frequencies --   1197.0365              1246.2553              1286.8440
 Red. masses --      6.3021                 1.2554                 1.3736
 Frc consts  --      5.3205                 1.1488                 1.3401
 IR Inten    --     19.3201                48.3107                32.2520
 Raman Activ --     39.4942                 8.9299                14.3583

                     25                     26                     27
                      A                      A                      A
 Frequencies --   1314.5643              1343.3185              1425.4982
 Red. masses --      1.8897                 1.5443                 1.8868
 Frc consts  --      1.9240                 1.6419                 2.2590
 IR Inten    --      3.9753                23.3056                20.2412
 Raman Activ --     60.1522                15.3790                82.8189

                     28                     29                     30
                      A                      A                      A
 Frequencies --   1442.0615              1447.4974              1459.7157
 Red. masses --      2.0105                 1.7109                 2.4474
 Frc consts  --      2.4633                 2.1121                 3.0725
 IR Inten    --     74.5304                 4.3346                13.2578
 Raman Activ --      4.4884               120.4176               121.3079

                     31                     32                     33
                      A                      A                      A
 Frequencies --   1466.6792              1507.5163              2988.3141
 Red. masses --      2.7349                 1.0949                 1.0616
 Frc consts  --      3.4663                 1.4661                 5.5854
 IR Inten    --      8.9217                 8.8118                66.6696
 Raman Activ --     10.6086                18.3308               165.9981

                     34                     35                     36
                      A                      A                      A
 Frequencies --   3006.5250              3036.2597              3067.1711
 Red. masses --      1.0662                 1.1016                 1.0949
 Frc consts  --      5.6782                 5.9835                 6.0687
 IR Inten    --    145.7051                47.2431                69.1324
 Raman Activ --    689.0269               249.2048                92.3490

                     37                     38                     39
                      A                      A                      A
 Frequencies --   3172.7180              3195.8743              3833.0822
 Red. masses --      1.0867                 1.1028                 1.0667
 Frc consts  --      6.4453                 6.6363                 9.2343
 IR Inten    --     21.4816                73.3783                57.5785
 Raman Activ --    207.8604               282.2864               167.8835

 - Thermochemistry -
 -------------------
 Temperature   298.150 Kelvin.  Pressure   1.00000 Atm.
 Thermochemistry will use frequencies scaled by 0.9670.

 Molecular mass:   111.05584 amu.
 Principal axes and moments of inertia in atomic units:
                           1         2         3
     Eigenvalues --   377.891521374.343821433.73087
           X           -0.24699   0.68644   0.68396
           Y            0.93813   0.34616  -0.00864
           Z            0.24269  -0.63951   0.72947
 This molecule is an asymmetric top.
 Rotational symmetry number  1.
 Rotational temperatures (Kelvin)      0.22920     0.06302     0.06041
 Rotational constants (GHZ):           4.77582     1.31317     1.25877
 Zero-point vibrational energy     300552.6 (Joules/Mol)
                                   71.83379 (Kcal/Mol)
 Warning -- explicit consideration of   7 degrees of freedom as
           vibrations may cause significant error
 Vibrational temperatures:     49.59   125.40   231.29   303.09   394.15
          (Kelvin)            512.77   673.06   914.36   922.62  1030.98
                             1038.53  1124.28  1200.51  1314.11  1322.92
                             1384.69  1422.99  1481.00  1544.58  1581.72
                             1637.81  1665.43  1733.91  1790.38  1828.95
                             1868.96  1983.29  2006.34  2013.90  2030.90
                             2040.59  2097.40  4157.63  4182.97  4224.34
                             4267.35  4414.19  4446.41  5332.96

 Zero-point correction=                           0.114474 (Hartree/Particle)
 Thermal correction to Energy=                    0.122211
 Thermal correction to Enthalpy=                  0.123155
 Thermal correction to Gibbs Free Energy=         0.081243
 Sum of electronic and zero-point Energies=           -379.608009
 Sum of electronic and thermal Energies=              -379.600273
 Sum of electronic and thermal Enthalpies=            -379.599328
 Sum of electronic and thermal Free Energies=         -379.641240

                     E (Thermal)             CV                S
                      KCal/Mol        Cal/Mol-Kelvin    Cal/Mol-Kelvin
 Total                   76.688             27.475             88.211
 Electronic               0.000              0.000              0.000
 Translational            0.889              2.981             40.031
 Rotational               0.889              2.981             28.101
 Vibrational             74.911             21.514             20.080
 Vibration     1          0.594              1.983              5.554
 Vibration     2          0.601              1.958              3.723
 Vibration     3          0.622              1.890              2.541
 Vibration     4          0.643              1.825              2.038
 Vibration     5          0.676              1.721              1.571
 Vibration     6          0.732              1.562              1.138
 Vibration     7          0.825              1.321              0.744

 Optimization completed.
    -- Stationary point found.
 Normal termination of Gaussian 16 at Thu Jan 11 15:14:34 2024.
