 Gaussian 16, Revision C.01,
 Gaussian 16:  ES64L-G16RevC.01  3-Jul-2019

 ----------------------------------------------------------------------
 #p freq=raman scale=0.967 pop=(nbo,full,hirshfeld) guess=read geom=all
 check b3lyp/6-311+G(d,p) int=grid=ultrafine EmpiricalDispersion=GD3BJ
 SCRF=(Solvent=ethanol) scf=(xqc,intrep,maxconventionalcycle=350) nosym
 m
 ----------------------------------------------------------------------

 Structure from the checkpoint file:  "/scratch1/svicchi/G09-709953.pbs02/02-freq/EG-CO2_binding_direct-site_index-0-freq.chk"
 --------------------------------------
 EG-CO2_binding_direct-site_index-0.gjf
 --------------------------------------
 Charge =  0 Multiplicity = 1

                          Input orientation:
 ---------------------------------------------------------------------
 Center     Atomic      Atomic             Coordinates (Angstroms)
 Number     Number       Type             X           Y           Z
 ---------------------------------------------------------------------
      1          8           0        2.245279   -0.587899    0.735881
      2          6           0        3.151722    0.243294    0.002857
      3          6           0        4.557865   -0.216031    0.340780
      4          1           0        3.028306    1.294880    0.281316
      5          1           0        2.981496    0.144532   -1.075089
      6          8           0        5.459647    0.577920   -0.436018
      7          1           0        4.662821   -1.278597    0.097774
      8          1           0        4.741893   -0.082535    1.412800
      9          1           0        6.358308    0.285617   -0.253390
     10          1           0        1.369918   -0.188710    0.708088
     11          6           0        1.930789   -3.093230   -0.480303
     12          8           0        1.054526   -3.361427    0.232132
     13          8           0        2.801428   -2.867060   -1.214241
 ---------------------------------------------------------------------

 SCF Done:  E(RB3LYP) =  -419.004219496     A.U. after    1 cycles

 Alpha  occ. eigenvalues --  -19.20309 -19.20306 -19.13707 -19.13427 -10.36095
 Alpha  occ. eigenvalues --  -10.22181 -10.22059  -1.16463  -1.12596  -1.03969
 Alpha  occ. eigenvalues --   -1.02896  -0.75015  -0.61759  -0.56726  -0.54896
 Alpha  occ. eigenvalues --   -0.52617  -0.52024  -0.51799  -0.49672  -0.48609
 Alpha  occ. eigenvalues --   -0.42928  -0.40891  -0.37723  -0.37571  -0.37225
 Alpha  occ. eigenvalues --   -0.34120  -0.29371  -0.29009
 Alpha virt. eigenvalues --   -0.01019   0.00262   0.01877   0.02771   0.03066
 Alpha virt. eigenvalues --    0.03242   0.05176   0.05449   0.06611   0.07130
 Alpha virt. eigenvalues --    0.08000   0.09799   0.10869   0.12704   0.14117

 Mulliken charges:
               1
     1  O   -0.395983
     2  C   -0.188851
     3  C   -0.211424
     4  H    0.155459
     5  H    0.158750
     6  O   -0.392649
     7  H    0.152808
     8  H    0.152221
     9  H    0.281048
    10  H    0.285790
    11  C    0.493969
    12  O   -0.255841
    13  O   -0.235298
 Sum of Mulliken charges =  -0.00000

 Dipole moment (field-independent basis, Debye):
    X=              0.1051    Y=              0.4815    Z=              0.4726  Tot=              0.6828
 Quadrupole moment (field-independent basis, Debye-Ang):
   XX=            -33.5849   YY=            -44.5747   ZZ=            -44.5772
   XY=             -4.5870   XZ=              6.2740   YZ=              2.6648

  Exact polarizability:      67.800       5.491      55.165     -10.740      -4.142      59.601
 Approx polarizability:      77.911       6.738      58.471     -17.850      -6.493      69.146

 Summary of Natural Population Analysis:

                                       Natural Population
                Natural  -----------------------------------------------
    Atom  No    Charge         Core      Valence    Rydberg      Total
 -----------------------------------------------------------------------
      O    1   -0.76852      1.99979     6.75370    0.01503     8.76852
      C    2   -0.04379      1.99924     4.02289    0.02165     6.04379
      C    3   -0.04472      1.99924     4.02387    0.02160     6.04472
      H    4    0.17026      0.00000     0.82766    0.00208     0.82974
      H    5    0.16654      0.00000     0.83108    0.00238     0.83346
      O    6   -0.76572      1.99978     6.75330    0.01264     8.76572
      H    7    0.16969      0.00000     0.82798    0.00233     0.83031
      H    8    0.16465      0.00000     0.83299    0.00236     0.83535
      H    9    0.47873      0.00000     0.51719    0.00408     0.52127
      H   10    0.48099      0.00000     0.51480    0.00421     0.51901
      C   11    1.02266      1.99973     2.92682    0.05079     4.97734
      O   12   -0.51443      1.99971     6.50160    0.01312     8.51443
      O   13   -0.51635      1.99971     6.50287    0.01377     8.51635
 =======================================================================
   * Total *   -0.00000     13.99720    41.83676    0.16604    56.00000

                      1                      2                      3
                      A                      A                      A
 Frequencies --     14.8970                37.4337                63.1688
 Red. masses --      8.6834                 4.8006                 2.4541
 Frc consts  --      0.0011                 0.0040                 0.0058
 IR Inten    --      0.1100                 1.7509                 3.9040
 Raman Activ --      2.5446                 0.2953                 0.2807

                      4                      5                      6
                      A                      A                      A
 Frequencies --     94.0481               106.8940               136.8310
 Red. masses --      6.9401                 6.8601                 4.2734
 Frc consts  --      0.0362                 0.0462                 0.0471
 IR Inten    --      0.5251                20.0828                86.2734
 Raman Activ --      0.3279                 2.7078                 1.8011

                      7                      8                      9
                      A                      A                      A
 Frequencies --    193.2538               268.9009               297.2532
 Red. masses --      1.1216                 1.0938                 3.0316
 Frc consts  --      0.0247                 0.0466                 0.1578
 IR Inten    --    106.2712               178.8635                46.8627
 Raman Activ --      2.3312                 2.1382                 0.2714

                     10                     11                     12
                      A                      A                      A
 Frequencies --    478.3016               637.4291               664.8602
 Red. masses --      6.8514                12.9014                12.8043
 Frc consts  --      0.9235                 3.0885                 3.3348
 IR Inten    --      0.0635                78.6222                45.0299
 Raman Activ --      3.2003                 3.9812                 0.0532

                     13                     14                     15
                      A                      A                      A
 Frequencies --    828.4058               986.5535              1036.9656
 Red. masses --      1.0963                 2.2187                 9.6453
 Frc consts  --      0.4433                 1.2723                 6.1107
 IR Inten    --      1.0338                 0.4629               317.5100
 Raman Activ --      0.1936                12.0026                 0.0701

                     16                     17                     18
                      A                      A                      A
 Frequencies --   1063.3944              1149.4807              1189.8508
 Red. masses --      4.7144                 1.4725                 1.0897
 Frc consts  --      3.1410                 1.1463                 0.9089
 IR Inten    --      0.1852                14.1675                93.1028
 Raman Activ --     17.8849                 1.8955                 0.6149

                     19                     20                     21
                      A                      A                      A
 Frequencies --   1234.9287              1278.8778              1307.2921
 Red. masses --      1.1321                 1.2315                 1.0874
 Frc consts  --      1.0172                 1.1867                 1.0949
 IR Inten    --      7.4714                 1.2657                 0.2273
 Raman Activ --      0.3076                 6.5429                27.7437

                     22                     23                     24
                      A                      A                      A
 Frequencies --   1372.0141              1405.8230              1475.0446
 Red. masses --     15.9046                 1.3199                 1.5709
 Frc consts  --     17.6396                 1.5369                 2.0137
 IR Inten    --      0.7087                 7.0400                 0.0354
 Raman Activ --     38.5005                 0.1371                 5.3554

                     25                     26                     27
                      A                      A                      A
 Frequencies --   1510.5994              1525.9831              2385.1574
 Red. masses --      1.0811                 1.0848                12.8626
 Frc consts  --      1.4535                 1.4884                43.1136
 IR Inten    --      0.2856                 8.9716              1086.2693
 Raman Activ --     26.5105                 0.3407                 0.3810

                     28                     29                     30
                      A                      A                      A
 Frequencies --   3009.3353              3014.2099              3042.1166
 Red. masses --      1.0568                 1.0554                 1.1048
 Frc consts  --      5.6388                 5.6498                 6.0238
 IR Inten    --      2.9770               146.0149                 0.3258
 Raman Activ --    474.3171                 9.4850               302.4292

                     31                     32                     33
                      A                      A                      A
 Frequencies --   3066.6595              3838.2639              3841.5232
 Red. masses --      1.1109                 1.0670                 1.0670
 Frc consts  --      6.1553                 9.2617                 9.2770
 IR Inten    --    115.8677                69.2102                89.4287
 Raman Activ --      1.1193               149.8610               115.1456

 - Thermochemistry -
 -------------------
 Temperature   298.150 Kelvin.  Pressure   1.00000 Atm.
 Thermochemistry will use frequencies scaled by 0.9670.

 Molecular mass:   106.02661 amu.
 Principal axes and moments of inertia in atomic units:
                           1         2         3
     Eigenvalues --   370.288931614.634561870.65820
           X            0.66767   0.60731   0.43057
           Y            0.74347  -0.51407  -0.42778
           Z            0.03845  -0.60573   0.79474
 This molecule is an asymmetric top.
 Rotational symmetry number  1.
 Rotational temperatures (Kelvin)      0.23391     0.05364     0.04630
 Rotational constants (GHZ):           4.87387     1.11774     0.96476
 Zero-point vibrational energy     246140.1 (Joules/Mol)
                                   58.82890 (Kcal/Mol)
 Warning -- explicit consideration of  11 degrees of freedom as
           vibrations may cause significant error
 Vibrational temperatures:     20.73    52.08    87.89   130.85   148.72
          (Kelvin)            190.37   268.87   374.12   413.57   665.46
                              886.85   925.02  1152.56  1372.59  1442.73
                             1479.50  1599.27  1655.44  1718.15  1779.30
                             1818.83  1908.88  1955.92  2052.23  2101.69
                             2123.10  3318.46  4186.88  4193.66  4232.49
                             4266.64  5340.17  5344.70

 Zero-point correction=                           0.093750 (Hartree/Particle)
 Thermal correction to Energy=                    0.103675
 Thermal correction to Enthalpy=                  0.104619
 Thermal correction to Gibbs Free Energy=         0.055548
 Sum of electronic and zero-point Energies=           -418.910470
 Sum of electronic and thermal Energies=              -418.900545
 Sum of electronic and thermal Enthalpies=            -418.899601
 Sum of electronic and thermal Free Energies=         -418.948672

                     E (Thermal)             CV                S
                      KCal/Mol        Cal/Mol-Kelvin    Cal/Mol-Kelvin
 Total                   65.057             29.693            103.279
 Electronic               0.000              0.000              0.000
 Translational            0.889              2.981             39.892
 Rotational               0.889              2.981             28.505
 Vibrational             63.279             23.732             34.882
 Vibration     1          0.593              1.986              7.286
 Vibration     2          0.594              1.982              5.457
 Vibration     3          0.597              1.973              4.422
 Vibration     4          0.602              1.956              3.640
 Vibration     5          0.605              1.947              3.390
 Vibration     6          0.612              1.921              2.912
 Vibration     7          0.632              1.858              2.259
 Vibration     8          0.668              1.746              1.662
 Vibration     9          0.685              1.697              1.489
 Vibration    10          0.820              1.333              0.759
 Vibration    11          0.976              0.997              0.422

 Normal termination of Gaussian 16 at Mon Jun 12 11:03:41 2023.
