 Gaussian 16, Revision C.01,
 Gaussian 16:  ES64L-G16RevC.01  3-Jul-2019

 ----------------------------------------------------------------------
 #p freq=raman scale=0.967 pop=(nbo,full,hirshfeld) guess=read geom=all
 check b3lyp/6-311+G(d,p) int=grid=ultrafine EmpiricalDispersion=GD3BJ
 SCRF=(Solvent=ethanol) scf=(xqc,intrep,maxconventionalcycle=350) nosym
 m
 ----------------------------------------------------------------------

 Structure from the checkpoint file:  "/scratch1/svicchi/G09-659742.pbs02/02-freq/3ethyl5hydroxymethylthiazolium-isolated-freq.chk"
 -------------------------------------------
 3ethyl5hydroxymethylthiazolium-isolated.gjf
 -------------------------------------------
 Charge =  1 Multiplicity = 1

                          Input orientation:
 ---------------------------------------------------------------------
 Center     Atomic      Atomic             Coordinates (Angstroms)
 Number     Number       Type             X           Y           Z
 ---------------------------------------------------------------------
      1          7           0       -0.096013    0.118397   -0.054751
      2          6           0        1.111473   -0.409969    0.014822
      3          6           0       -0.560974    0.286528   -1.349842
      4          6           0        0.327707   -0.126013   -2.285492
      5         16           0        1.767773   -0.738420   -1.515131
      6          6           0       -0.913442    0.453924    1.139271
      7          6           0       -2.004614   -0.582294    1.373294
      8          1           0       -2.570459   -0.300205    2.262842
      9          1           0       -2.696772   -0.631304    0.530998
     10          1           0       -1.573929   -1.571829    1.535655
     11          1           0       -1.325505    1.447420    0.965247
     12          1           0       -0.225740    0.512308    1.980810
     13          1           0       -1.533664    0.714075   -1.524771
     14          1           0        1.620609   -0.610206    0.944214
     15          6           0        0.167263   -0.083556   -3.773355
     16          8           0       -1.126581    0.435784   -4.040050
     17          1           0        0.285268   -1.093104   -4.183449
     18          1           0        0.949588    0.549991   -4.206624
     19          1           0       -1.234687    0.510664   -4.994337
 ---------------------------------------------------------------------

 SCF Done:  E(RB3LYP) =  -762.811519987     A.U. after    1 cycles

 Alpha  occ. eigenvalues --  -88.94643 -19.15588 -14.45185 -10.30491 -10.26363
 Alpha  occ. eigenvalues --  -10.26315 -10.26056 -10.25126 -10.18750  -8.03214
 Alpha  occ. eigenvalues --   -5.99492  -5.99090  -5.98848  -1.07285  -1.05942
 Alpha  occ. eigenvalues --   -0.89882  -0.82671  -0.80011  -0.74258  -0.68810
 Alpha  occ. eigenvalues --   -0.64508  -0.62673  -0.56584  -0.55059  -0.51499
 Alpha  occ. eigenvalues --   -0.50507  -0.49389  -0.48041  -0.47404  -0.45597
 Alpha  occ. eigenvalues --   -0.42257  -0.41406  -0.40287  -0.38775  -0.38410
 Alpha  occ. eigenvalues --   -0.34276  -0.31843  -0.29936
 Alpha virt. eigenvalues --   -0.09399  -0.03218  -0.03029  -0.01061   0.00389
 Alpha virt. eigenvalues --    0.01075   0.01855   0.02571   0.03048   0.03641
 Alpha virt. eigenvalues --    0.04304   0.05684   0.06170   0.06743   0.06825

 Mulliken charges:
               1
     1  N    0.302706
     2  C   -0.181498
     3  C   -0.266311
     4  C    0.204199
     5  S    0.208983
     6  C   -0.202445
     7  C   -0.386275
     8  H    0.175747
     9  H    0.160061
    10  H    0.163500
    11  H    0.206894
    12  H    0.186301
    13  H    0.196646
    14  H    0.237615
    15  C   -0.320459
    16  O   -0.366780
    17  H    0.192846
    18  H    0.196298
    19  H    0.291971
 Sum of Mulliken charges =   1.00000

 Dipole moment (field-independent basis, Debye):
    X=              1.7691    Y=             -0.7703    Z=             -4.0113  Tot=              4.4513
 Quadrupole moment (field-independent basis, Debye-Ang):
   XX=            -50.2476   YY=            -58.2971   ZZ=            -23.3944
   XY=             -3.7526   XZ=             -5.1257   YZ=              1.4244

  Exact polarizability:     126.289     -16.047      88.584      -8.281       1.765     139.805
 Approx polarizability:     152.083     -24.153     104.776      -7.248       3.747     161.726

 Summary of Natural Population Analysis:

                                       Natural Population
                Natural  -----------------------------------------------
    Atom  No    Charge         Core      Valence    Rydberg      Total
 -----------------------------------------------------------------------
      N    1   -0.33239      1.99922     5.31370    0.01947     7.33239
      C    2   -0.04998      1.99927     4.02579    0.02491     6.04998
      C    3   -0.00519      1.99890     3.98513    0.02116     6.00519
      C    4   -0.18845      1.99900     4.16788    0.02156     6.18845
      S    5    0.58756      9.99883     5.37409    0.03952    15.41244
      C    6   -0.16680      1.99928     4.15125    0.01627     6.16680
      C    7   -0.58944      1.99935     4.58198    0.00811     6.58944
      H    8    0.22814      0.00000     0.77079    0.00107     0.77186
      H    9    0.21399      0.00000     0.78463    0.00138     0.78601
      H   10    0.21508      0.00000     0.78346    0.00146     0.78492
      H   11    0.22857      0.00000     0.76976    0.00167     0.77143
      H   12    0.22636      0.00000     0.77215    0.00148     0.77364
      H   13    0.26506      0.00000     0.73320    0.00174     0.73494
      H   14    0.27099      0.00000     0.72756    0.00145     0.72901
      C   15   -0.05392      1.99906     4.03231    0.02255     6.05392
      O   16   -0.74660      1.99978     6.73488    0.01194     8.74660
      H   17    0.20266      0.00000     0.79558    0.00176     0.79734
      H   18    0.20394      0.00000     0.79431    0.00174     0.79606
      H   19    0.49040      0.00000     0.50553    0.00407     0.50960
 =======================================================================
   * Total *    1.00000     25.99269    49.80400    0.20331    76.00000

                      1                      2                      3
                      A                      A                      A
 Frequencies --     21.3668                76.1729               115.8362
 Red. masses --      2.9813                 2.6842                 3.4136
 Frc consts  --      0.0008                 0.0092                 0.0270
 IR Inten    --     60.2534                 3.7344                 3.3485
 Raman Activ --      2.3804                 1.8851                 2.3529

                      4                      5                      6
                      A                      A                      A
 Frequencies --    161.8668               168.9720               220.9645
 Red. masses --      1.8396                 1.3397                 2.0717
 Frc consts  --      0.0284                 0.0225                 0.0596
 IR Inten    --     58.1166                97.7676                 0.5252
 Raman Activ --      0.4583                 0.8889                 3.1721

                      7                      8                      9
                      A                      A                      A
 Frequencies --    233.2702               352.4134               376.9989
 Red. masses --      1.6370                 3.1205                 4.1948
 Frc consts  --      0.0525                 0.2283                 0.3513
 IR Inten    --      2.8454                 2.9176                 5.5045
 Raman Activ --      1.4233                 1.4123                 6.4324

                     10                     11                     12
                      A                      A                      A
 Frequencies --    391.3142               479.3727               562.8019
 Red. masses --      4.8968                 4.0900                 4.6875
 Frc consts  --      0.4418                 0.5538                 0.8748
 IR Inten    --      1.3128                 2.8321                 8.0458
 Raman Activ --      3.1457                 1.6676                15.0089

                     13                     14                     15
                      A                      A                      A
 Frequencies --    588.0119               646.6438               765.7719
 Red. masses --      5.0546                 3.2898                 4.4395
 Frc consts  --      1.0297                 0.8105                 1.5339
 IR Inten    --     17.4986                21.4006                16.9198
 Raman Activ --      5.3698                 0.5327                22.2656

                     16                     17                     18
                      A                      A                      A
 Frequencies --    803.9206               813.0269               853.4959
 Red. masses --      1.2661                 1.1656                 1.3121
 Frc consts  --      0.4821                 0.4540                 0.5631
 IR Inten    --     11.4489                 4.1713                52.2404
 Raman Activ --      0.9234                 1.3983                 1.8511

                     19                     20                     21
                      A                      A                      A
 Frequencies --    896.2803               961.8234              1025.6231
 Red. masses --      3.3815                 2.6636                 2.5214
 Frc consts  --      1.6005                 1.4518                 1.5627
 IR Inten    --     23.6027                 5.1060                 8.7960
 Raman Activ --     15.6524                24.9183                 2.8686

                     22                     23                     24
                      A                      A                      A
 Frequencies --   1027.1324              1056.7624              1106.3144
 Red. masses --      2.1823                 8.0138                 1.9736
 Frc consts  --      1.3565                 5.2728                 1.4232
 IR Inten    --      7.0280               102.1541                 8.0910
 Raman Activ --      4.4881                11.5664                15.4104

                     25                     26                     27
                      A                      A                      A
 Frequencies --   1132.4049              1155.5571              1180.0223
 Red. masses --      1.7295                 2.2958                 2.2003
 Frc consts  --      1.3067                 1.8062                 1.8051
 IR Inten    --     14.7554                27.8172                25.8271
 Raman Activ --      1.8763                 6.6839                15.2840

                     28                     29                     30
                      A                      A                      A
 Frequencies --   1213.8577              1262.5979              1273.1818
 Red. masses --      1.2396                 1.2267                 1.0736
 Frc consts  --      1.0762                 1.1522                 1.0253
 IR Inten    --    117.7171                14.3593                 2.0640
 Raman Activ --     17.8546                 9.6947                10.4257

                     31                     32                     33
                      A                      A                      A
 Frequencies --   1290.0057              1371.4854              1416.8442
 Red. masses --      1.3878                 1.4044                 1.2649
 Frc consts  --      1.3607                 1.5565                 1.4961
 IR Inten    --     11.1086                33.3240                 6.2268
 Raman Activ --      9.5027                12.3059                 7.4789

                     34                     35                     36
                      A                      A                      A
 Frequencies --   1427.8491              1462.7919              1483.5111
 Red. masses --      1.7022                 1.4357                 1.1009
 Frc consts  --      2.0447                 1.8100                 1.4275
 IR Inten    --      3.4015                24.4481                22.8869
 Raman Activ --     13.6674                 9.5253                32.8284

                     37                     38                     39
                      A                      A                      A
 Frequencies --   1485.7567              1494.8966              1504.5922
 Red. masses --      1.0472                 1.2631                 1.3306
 Frc consts  --      1.3620                 1.6631                 1.7748
 IR Inten    --     14.9907                28.6904                15.6801
 Raman Activ --     14.4663                67.7930                22.4898

                     40                     41                     42
                      A                      A                      A
 Frequencies --   1524.5868              1623.7532              3015.2236
 Red. masses --      1.9455                 5.4924                 1.0553
 Frc consts  --      2.6644                 8.5320                 5.6529
 IR Inten    --     34.9222                22.0928                33.4144
 Raman Activ --     58.2415                53.8395               399.6544

                     43                     44                     45
                      A                      A                      A
 Frequencies --   3045.6483              3047.1947              3094.0087
 Red. masses --      1.1065                 1.0346                 1.0616
 Frc consts  --      6.0476                 5.6603                 5.9876
 IR Inten    --     18.2534                12.3252                 8.3627
 Raman Activ --    186.4799               322.2030               218.3776

                     46                     47                     48
                      A                      A                      A
 Frequencies --   3116.4595              3122.7520              3151.3068
 Red. masses --      1.1041                 1.1010                 1.1082
 Frc consts  --      6.3179                 6.3260                 6.4843
 IR Inten    --     13.4714                21.8134                11.0364
 Raman Activ --    142.3211               205.0701                60.4397

                     49                     50                     51
                      A                      A                      A
 Frequencies --   3265.2435              3273.2642              3834.5601
 Red. masses --      1.0966                 1.0986                 1.0670
 Frc consts  --      6.8888                 6.9354                 9.2439
 IR Inten    --     50.9052                13.6430               123.1797
 Raman Activ --    113.3202               173.0930               208.5620

 - Thermochemistry -
 -------------------
 Temperature   298.150 Kelvin.  Pressure   1.00000 Atm.
 Thermochemistry will use frequencies scaled by 0.9670.

 Molecular mass:   144.04831 amu.
 Principal axes and moments of inertia in atomic units:
                           1         2         3
     Eigenvalues --   872.741061851.609042573.07261
           X           -0.22526   0.94137   0.25115
           Y           -0.02420  -0.26310   0.96446
           Z            0.97400   0.21118   0.08205
 This molecule is an asymmetric top.
 Rotational symmetry number  1.
 Warning -- assumption of classical behavior for rotation
           may cause significant error
 Rotational temperatures (Kelvin)      0.09924     0.04678     0.03366
 Rotational constants (GHZ):           2.06790     0.97469     0.70140
 Zero-point vibrational energy     398950.5 (Joules/Mol)
                                   95.35147 (Kcal/Mol)
 Warning -- explicit consideration of  13 degrees of freedom as
           vibrations may cause significant error
 Vibrational temperatures:     29.73   105.98   161.16   225.20   235.09
          (Kelvin)            307.43   324.55   490.31   524.52   544.43
                              666.95   783.02   818.10   899.67  1065.42
                             1118.49  1131.16  1187.47  1246.99  1338.18
                             1426.95  1429.05  1470.27  1539.21  1575.51
                             1607.72  1641.76  1688.84  1756.65  1771.37
                             1794.78  1908.14  1971.25  1986.56  2035.18
                             2064.01  2067.13  2079.85  2093.34  2121.15
                             2259.12  4195.07  4237.40  4239.55  4304.69
                             4335.92  4344.68  4384.40  4542.92  4554.08
                             5335.01

 Zero-point correction=                           0.151952 (Hartree/Particle)
 Thermal correction to Energy=                    0.162097
 Thermal correction to Enthalpy=                  0.163041
 Thermal correction to Gibbs Free Energy=         0.115005
 Sum of electronic and zero-point Energies=           -762.659568
 Sum of electronic and thermal Energies=              -762.649423
 Sum of electronic and thermal Enthalpies=            -762.648479
 Sum of electronic and thermal Free Energies=         -762.696515

                     E (Thermal)             CV                S
                      KCal/Mol        Cal/Mol-Kelvin    Cal/Mol-Kelvin
 Total                  101.717             36.185            101.102
 Electronic               0.000              0.000              0.000
 Translational            0.889              2.981             40.806
 Rotational               0.889              2.981             29.809
 Vibrational             99.940             30.224             30.486
 Vibration     1          0.593              1.986              6.570
 Vibration     2          0.599              1.966              4.053
 Vibration     3          0.607              1.940              3.234
 Vibration     4          0.620              1.895              2.591
 Vibration     5          0.623              1.887              2.510
 Vibration     6          0.644              1.820              2.012
 Vibration     7          0.650              1.802              1.914
 Vibration     8          0.720              1.594              1.208
 Vibration     9          0.738              1.545              1.103
 Vibration    10          0.749              1.516              1.046
 Vibration    11          0.821              1.331              0.756
 Vibration    12          0.899              1.152              0.556
 Vibration    13          0.925              1.099              0.507

 Normal termination of Gaussian 16 at Fri Jun  2 12:06:13 2023.
