 Gaussian 16, Revision C.01,
 Gaussian 16:  ES64L-G16RevC.01  3-Jul-2019

 ----------------------------------------------------------------------
 #p freq=raman scale=0.967 pop=(nbo,full,hirshfeld) guess=read geom=all
 check b3lyp/6-311+G(d,p) int=grid=ultrafine EmpiricalDispersion=GD3BJ
 SCRF=(Solvent=ethanol) scf=(xqc,intrep,maxconventionalcycle=350) nosym
 m
 ----------------------------------------------------------------------

 Structure from the checkpoint file:  "/scratch1/svicchi/G09-659781.pbs02/02-freq/2ethylimidazolide-isolated-freq.chk"
 ------------------------------
 2ethylimidazolide-isolated.gjf
 ------------------------------
 Charge = -1 Multiplicity = 1

                          Input orientation:
 ---------------------------------------------------------------------
 Center     Atomic      Atomic             Coordinates (Angstroms)
 Number     Number       Type             X           Y           Z
 ---------------------------------------------------------------------
      1          7           0       -0.829802   -0.473554   -0.728083
      2          7           0        0.509104   -0.772080    1.087508
      3          6           0       -0.486224   -1.262602    0.314885
      4          6           0       -1.119888   -2.601865    0.563166
      5          6           0        0.013479    0.608632   -0.614641
      6          6           0        0.829727    0.426581    0.491294
      7          1           0       -0.021676    1.436473   -1.311759
      8          1           0        1.601413    1.074298    0.888078
      9          6           0       -0.422551   -3.757272   -0.175089
     10          1           0       -2.169868   -2.563258    0.255239
     11          1           0       -1.108495   -2.806452    1.638653
     12          1           0       -0.443762   -3.595347   -1.256469
     13          1           0       -0.909972   -4.715223    0.033655
     14          1           0        0.624336   -3.835950    0.131444
 ---------------------------------------------------------------------

 SCF Done:  E(RB3LYP) =  -304.477871515     A.U. after    1 cycles

 Alpha  occ. eigenvalues --  -14.25291 -14.25284 -10.16646 -10.15184 -10.14803
 Alpha  occ. eigenvalues --  -10.14176 -10.14119  -0.94037  -0.78844  -0.75976
 Alpha  occ. eigenvalues --   -0.67691  -0.60690  -0.53753  -0.49326  -0.45392
 Alpha  occ. eigenvalues --   -0.42993  -0.40890  -0.37749  -0.37442  -0.34444
 Alpha  occ. eigenvalues --   -0.32766  -0.32699  -0.26505  -0.22742  -0.22429
 Alpha  occ. eigenvalues --   -0.18066
 Alpha virt. eigenvalues --    0.01464   0.02603   0.03715   0.04086   0.05319
 Alpha virt. eigenvalues --    0.05798   0.06354   0.06730   0.07916   0.08477
 Alpha virt. eigenvalues --    0.08579   0.09311   0.09430   0.10209   0.10981

 Mulliken charges:
               1
     1  N   -0.368661
     2  N   -0.369053
     3  C    0.105628
     4  C   -0.459558
     5  C   -0.151742
     6  C   -0.153437
     7  H    0.094760
     8  H    0.094801
     9  C   -0.469306
    10  H    0.136819
    11  H    0.136987
    12  H    0.136763
    13  H    0.129816
    14  H    0.136183
 Sum of Mulliken charges =  -1.00000

 Dipole moment (field-independent basis, Debye):
    X=              0.5799    Y=              2.7400    Z=             -0.7664  Tot=              2.9036
 Quadrupole moment (field-independent basis, Debye-Ang):
   XX=            -51.3896   YY=            -48.7549   ZZ=            -54.7392
   XY=              1.8531   XZ=             -4.4627   YZ=              0.5878

  Exact polarizability:     101.799      12.299     121.288      12.935      -8.145     105.693
 Approx polarizability:     111.343      12.839     123.910      16.782     -10.558     117.027

 Summary of Natural Population Analysis:

                                       Natural Population
                Natural  -----------------------------------------------
    Atom  No    Charge         Core      Valence    Rydberg      Total
 -----------------------------------------------------------------------
      N    1   -0.65585      1.99943     5.62920    0.02722     7.65585
      N    2   -0.65592      1.99943     5.62924    0.02724     7.65592
      C    3    0.29226      1.99929     3.66423    0.04422     5.70774
      C    4   -0.41641      1.99922     4.40030    0.01689     6.41641
      C    5   -0.16228      1.99920     4.12998    0.03310     6.16228
      C    6   -0.16275      1.99920     4.13043    0.03311     6.16275
      H    7    0.17975      0.00000     0.81845    0.00180     0.82025
      H    8    0.17984      0.00000     0.81836    0.00180     0.82016
      C    9   -0.56734      1.99936     4.55932    0.00865     6.56734
      H   10    0.19647      0.00000     0.80130    0.00223     0.80353
      H   11    0.19685      0.00000     0.80094    0.00222     0.80315
      H   12    0.19251      0.00000     0.80540    0.00210     0.80749
      H   13    0.19063      0.00000     0.80756    0.00180     0.80937
      H   14    0.19224      0.00000     0.80566    0.00209     0.80776
 =======================================================================
   * Total *   -1.00000     13.99515    37.80038    0.20447    52.00000

                      1                      2                      3
                      A                      A                      A
 Frequencies --     46.0408               153.6080               220.4811
 Red. masses --      2.6899                 3.3890                 1.1186
 Frc consts  --      0.0034                 0.0471                 0.0320
 IR Inten    --      0.4774                 5.6711                 1.6809
 Raman Activ --      4.3578                 6.1970                 0.1102

                      4                      5                      6
                      A                      A                      A
 Frequencies --    368.2188               394.1735               657.7791
 Red. masses --      2.1739                 3.9096                 3.6575
 Frc consts  --      0.1737                 0.3579                 0.9324
 IR Inten    --     13.6880                18.4819                 3.7807
 Raman Activ --      0.5662                 4.1116                 5.1983

                      7                      8                      9
                      A                      A                      A
 Frequencies --    662.7410               743.1350               765.7289
 Red. masses --      3.7528                 1.1974                 6.2606
 Frc consts  --      0.9712                 0.3896                 2.1628
 IR Inten    --      0.0446               122.7888                 2.4119
 Raman Activ --      0.2665                35.5571                 2.9230

                     10                     11                     12
                      A                      A                      A
 Frequencies --    781.6073               809.8148               947.6977
 Red. masses --      1.2066                 1.3546                 7.9266
 Frc consts  --      0.4343                 0.5234                 4.1944
 IR Inten    --      0.0397                 0.1208                12.2200
 Raman Activ --      0.3222                22.4352                 1.6439

                     13                     14                     15
                      A                      A                      A
 Frequencies --    950.6134               997.9822              1046.8704
 Red. masses --      2.7477                 2.4555                 1.4712
 Frc consts  --      1.4630                 1.4409                 0.9500
 IR Inten    --     10.8154                 0.4535                49.1907
 Raman Activ --     21.8270                 9.9544                 1.7006

                     16                     17                     18
                      A                      A                      A
 Frequencies --   1074.3779              1110.5474              1145.1558
 Red. masses --      1.8684                 1.8091                 2.0148
 Frc consts  --      1.2707                 1.3146                 1.5567
 IR Inten    --      6.5970                 7.4966                30.8766
 Raman Activ --      8.1491                49.4150                10.5085

                     19                     20                     21
                      A                      A                      A
 Frequencies --   1197.8787              1259.4045              1319.0199
 Red. masses --      6.7731                 1.7697                 1.8104
 Frc consts  --      5.7261                 1.6538                 1.8558
 IR Inten    --     15.9960                 9.7152                 1.2448
 Raman Activ --     44.2215                 5.1162                48.5695

                     22                     23                     24
                      A                      A                      A
 Frequencies --   1329.4727              1388.5477              1442.0194
 Red. masses --      1.4723                 1.2772                 3.0542
 Frc consts  --      1.5332                 1.4509                 3.7418
 IR Inten    --     19.7226                 3.0994                98.4594
 Raman Activ --     12.8112                34.3557                 3.6316

                     25                     26                     27
                      A                      A                      A
 Frequencies --   1444.3623              1460.7620              1466.0223
 Red. masses --      3.8039                 3.0694                 1.1589
 Frc consts  --      4.6755                 3.8588                 1.4675
 IR Inten    --     12.0133                 1.3031                 0.8519
 Raman Activ --    268.7498                64.3295                26.7234

                     28                     29                     30
                      A                      A                      A
 Frequencies --   1482.9537              1498.3643              3012.2289
 Red. masses --      1.0410                 1.1679                 1.0359
 Frc consts  --      1.3488                 1.5449                 5.5377
 IR Inten    --      9.0217                10.4816                74.0806
 Raman Activ --     17.0488                18.8839               307.2721

                     31                     32                     33
                      A                      A                      A
 Frequencies --   3019.1991              3051.2955              3072.5940
 Red. masses --      1.0582                 1.1020                 1.1004
 Frc consts  --      5.6835                 6.0451                 6.1206
 IR Inten    --     69.1978                19.2544                98.7967
 Raman Activ --    463.7466               268.9691               277.3695

                     34                     35                     36
                      A                      A                      A
 Frequencies --   3085.8160              3172.2028              3195.2138
 Red. masses --      1.1033                 1.0866                 1.1029
 Frc consts  --      6.1900                 6.4425                 6.6339
 IR Inten    --     88.2076                20.7604                74.5264
 Raman Activ --     34.3359               208.3342               285.3209

 - Thermochemistry -
 -------------------
 Temperature   298.150 Kelvin.  Pressure   1.00000 Atm.
 Thermochemistry will use frequencies scaled by 0.9670.

 Molecular mass:    95.06092 amu.
 Principal axes and moments of inertia in atomic units:
                           1         2         3
     Eigenvalues --   261.27053 925.226721055.09406
           X            0.26966   0.58120   0.76778
           Y            0.96236  -0.13455  -0.23615
           Z           -0.03394   0.80256  -0.59560
 This molecule is an asymmetric top.
 Rotational symmetry number  1.
 Rotational temperatures (Kelvin)      0.33151     0.09361     0.08209
 Rotational constants (GHZ):           6.90756     1.95059     1.71050
 Zero-point vibrational energy     287889.7 (Joules/Mol)
                                   68.80728 (Kcal/Mol)
 Warning -- explicit consideration of   5 degrees of freedom as
           vibrations may cause significant error
 Vibrational temperatures:     64.06   213.71   306.75   512.30   548.41
          (Kelvin)            915.17   922.07  1033.92  1065.36  1087.45
                             1126.69  1318.53  1322.59  1388.49  1456.51
                             1494.78  1545.10  1593.25  1666.61  1752.21
                             1835.15  1849.69  1931.88  2006.28  2009.54
                             2032.35  2039.67  2063.23  2084.67  4190.91
                             4200.60  4245.26  4274.89  4293.29  4413.48
                             4445.49

 Zero-point correction=                           0.109651 (Hartree/Particle)
 Thermal correction to Energy=                    0.116230
 Thermal correction to Enthalpy=                  0.117174
 Thermal correction to Gibbs Free Energy=         0.078566
 Sum of electronic and zero-point Energies=           -304.368220
 Sum of electronic and thermal Energies=              -304.361641
 Sum of electronic and thermal Enthalpies=            -304.360697
 Sum of electronic and thermal Free Energies=         -304.399305

                     E (Thermal)             CV                S
                      KCal/Mol        Cal/Mol-Kelvin    Cal/Mol-Kelvin
 Total                   72.935             23.714             81.258
 Electronic               0.000              0.000              0.000
 Translational            0.889              2.981             39.567
 Rotational               0.889              2.981             27.036
 Vibrational             71.158             17.753             14.655
 Vibration     1          0.595              1.980              5.047
 Vibration     2          0.618              1.904              2.691
 Vibration     3          0.644              1.821              2.016
 Vibration     4          0.732              1.563              1.139
 Vibration     5          0.751              1.510              1.035

 Normal termination of Gaussian 16 at Fri Jun  2 11:38:22 2023.
