 Gaussian 16, Revision C.01,
 Gaussian 16:  ES64L-G16RevC.01  3-Jul-2019

 ----------------------------------------------------------------------
 #p freq=raman scale=0.967 pop=(nbo,full,hirshfeld) guess=read geom=all
 check b3lyp/6-311+G(d,p) int=grid=ultrafine EmpiricalDispersion=GD3BJ
 SCRF=(Solvent=ethanol) scf=(xqc,intrep,maxconventionalcycle=350) nosym
 m
 ----------------------------------------------------------------------

 Structure from the checkpoint file:  "/scratch1/svicchi/G09-659728.pbs02/02-freq/EMIM-isolated-freq.chk"
 -----------------
 EMIM-isolated.gjf
 -----------------
 Charge =  1 Multiplicity = 1

                          Input orientation:
 ---------------------------------------------------------------------
 Center     Atomic      Atomic             Coordinates (Angstroms)
 Number     Number       Type             X           Y           Z
 ---------------------------------------------------------------------
      1          6           0        1.102021   -0.274287    0.344068
      2          7           0        0.645148   -1.577681   -0.176365
      3          6           0        0.929528   -2.769756    0.354936
      4          7           0        0.390092   -3.719336   -0.414076
      5          6           0        0.454316   -5.162493   -0.163163
      6          6           0       -0.259211   -3.114642   -1.474446
      7          6           0       -0.096363   -1.771911   -1.326931
      8          6           0        2.277757    0.272008   -0.455758
      9          1           0        1.365837   -0.427745    1.389720
     10          1           0        0.245627    0.398698    0.309393
     11          1           0        1.498728   -2.937224    1.252675
     12          1           0        1.088579   -5.338615    0.701856
     13          1           0        0.877235   -5.658198   -1.034915
     14          1           0       -0.548008   -5.539860    0.032647
     15          1           0       -0.775663   -3.685203   -2.225793
     16          1           0       -0.440446   -0.949818   -1.928941
     17          1           0        3.128993   -0.409884   -0.411894
     18          1           0        2.580800    1.232506   -0.034967
     19          1           0        2.005429    0.427864   -1.501233
 ---------------------------------------------------------------------

 SCF Done:  E(RB3LYP) =  -344.737991710     A.U. after    3 cycles

 Alpha  occ. eigenvalues --  -14.43343 -14.43017 -10.29625 -10.24934 -10.24861
 Alpha  occ. eigenvalues --  -10.24477 -10.23847 -10.18318  -1.10194  -0.98412
 Alpha  occ. eigenvalues --   -0.83370  -0.80419  -0.75729  -0.68839  -0.66084
 Alpha  occ. eigenvalues --   -0.63806  -0.58142  -0.52911  -0.51094  -0.50329
 Alpha  occ. eigenvalues --   -0.49422  -0.48367  -0.46514  -0.45953  -0.43480
 Alpha  occ. eigenvalues --   -0.41539  -0.40139  -0.38164  -0.33312  -0.29480
 Alpha virt. eigenvalues --   -0.04839  -0.01897  -0.00312   0.00872   0.01921
 Alpha virt. eigenvalues --    0.02419   0.03103   0.03735   0.03989   0.04884
 Alpha virt. eigenvalues --    0.05417   0.05991   0.06822   0.07224   0.07734

 Mulliken charges:
               1
     1  C   -0.174970
     2  N    0.028372
     3  C   -0.033789
     4  N   -0.023641
     5  C   -0.212248
     6  C   -0.055831
     7  C   -0.161945
     8  C   -0.405827
     9  H    0.182342
    10  H    0.198019
    11  H    0.204498
    12  H    0.182527
    13  H    0.197689
    14  H    0.204856
    15  H    0.190712
    16  H    0.192966
    17  H    0.158237
    18  H    0.170440
    19  H    0.157594
 Sum of Mulliken charges =   1.00000

 Dipole moment (field-independent basis, Debye):
    X=              3.1276    Y=            -12.5696    Z=             -0.9932  Tot=             12.9909
 Quadrupole moment (field-independent basis, Debye-Ang):
   XX=            -42.1565   YY=              8.0295   ZZ=            -39.7934
   XY=             -5.4292   XZ=              4.8674   YZ=              3.1701

  Exact polarizability:      81.778       6.966     119.607      13.438       0.351      91.663
 Approx polarizability:      92.668       4.030     130.855      18.125       0.195     108.584

 Summary of Natural Population Analysis:

                                       Natural Population
                Natural  -----------------------------------------------
    Atom  No    Charge         Core      Valence    Rydberg      Total
 -----------------------------------------------------------------------
      C    1   -0.17034      1.99929     4.15460    0.01645     6.17034
      N    2   -0.34980      1.99929     5.33514    0.01537     7.34980
      C    3    0.30453      1.99922     3.67202    0.02423     5.69547
      N    4   -0.34443      1.99929     5.33283    0.01232     7.34443
      C    5   -0.35230      1.99933     4.34085    0.01212     6.35230
      C    6   -0.01158      1.99918     3.99353    0.01887     6.01158
      C    7   -0.01194      1.99918     3.99382    0.01894     6.01194
      C    8   -0.58756      1.99935     4.58003    0.00817     6.58756
      H    9    0.22300      0.00000     0.77551    0.00149     0.77700
      H   10    0.22305      0.00000     0.77539    0.00155     0.77695
      H   11    0.25112      0.00000     0.74753    0.00136     0.74888
      H   12    0.22647      0.00000     0.77261    0.00092     0.77353
      H   13    0.22566      0.00000     0.77337    0.00097     0.77434
      H   14    0.22498      0.00000     0.77405    0.00097     0.77502
      H   15    0.25123      0.00000     0.74749    0.00128     0.74877
      H   16    0.25134      0.00000     0.74729    0.00137     0.74866
      H   17    0.21188      0.00000     0.78650    0.00162     0.78812
      H   18    0.22337      0.00000     0.77549    0.00114     0.77663
      H   19    0.21130      0.00000     0.78726    0.00143     0.78870
 =======================================================================
   * Total *    1.00000     15.99413    43.86530    0.14057    60.00000

                      1                      2                      3
                      A                      A                      A
 Frequencies --     62.0965                81.3331               135.0121
 Red. masses --      2.1634                 1.1301                 3.0735
 Frc consts  --      0.0049                 0.0044                 0.0330
 IR Inten    --      0.4167                 0.2429                 1.4869
 Raman Activ --      1.3053                 0.6528                 3.1110

                      4                      5                      6
                      A                      A                      A
 Frequencies --    213.7708               231.5288               295.3858
 Red. masses --      1.2723                 2.9518                 1.8849
 Frc consts  --      0.0343                 0.0932                 0.0969
 IR Inten    --      0.3575                 2.4594                 0.3333
 Raman Activ --      0.0977                 2.5070                 0.2948

                      7                      8                      9
                      A                      A                      A
 Frequencies --    387.1272               430.3147               598.0869
 Red. masses --      3.1532                 2.6641                 3.6480
 Frc consts  --      0.2784                 0.2907                 0.7688
 IR Inten    --      0.4445                 0.4525                 3.8240
 Raman Activ --      2.6196                 1.6648                10.5559

                     10                     11                     12
                      A                      A                      A
 Frequencies --    632.4065               660.3005               708.6299
 Red. masses --      3.0621                 3.0254                 3.7958
 Frc consts  --      0.7215                 0.7772                 1.1230
 IR Inten    --     18.9617                23.9458                 8.6942
 Raman Activ --      0.3646                 0.2541                 4.3578

                     13                     14                     15
                      A                      A                      A
 Frequencies --    748.4829               808.9101               846.1476
 Red. masses --      1.2329                 1.1483                 1.4517
 Frc consts  --      0.4069                 0.4427                 0.6124
 IR Inten    --     49.6854                 3.0241                46.4816
 Raman Activ --      2.4054                 0.2297                 0.8690

                     16                     17                     18
                      A                      A                      A
 Frequencies --    878.5047               967.1874              1048.0563
 Red. masses --      1.3653                 2.3000                 3.1743
 Frc consts  --      0.6208                 1.2677                 2.0543
 IR Inten    --      0.1683                 7.9410                 2.3930
 Raman Activ --      3.7204                10.6027                12.4178

                     19                     20                     21
                      A                      A                      A
 Frequencies --   1053.5019              1103.1966              1107.9846
 Red. masses --      3.1034                 1.4870                 1.7115
 Frc consts  --      2.0294                 1.0663                 1.2379
 IR Inten    --      4.1968                11.4881                 3.3999
 Raman Activ --      9.2514                10.0466                 3.8940

                     22                     23                     24
                      A                      A                      A
 Frequencies --   1121.5558              1139.1748              1153.2569
 Red. masses --      1.3572                 1.6908                 1.3317
 Frc consts  --      1.0058                 1.2928                 1.0436
 IR Inten    --      8.3694                 4.2558                 1.2869
 Raman Activ --      3.4428                 7.1474                 0.7756

                     25                     26                     27
                      A                      A                      A
 Frequencies --   1183.4269              1273.2540              1313.6062
 Red. masses --      1.8644                 1.3749                 1.4140
 Frc consts  --      1.5384                 1.3132                 1.4376
 IR Inten    --    148.4829                 0.2108                 0.7913
 Raman Activ --      2.9916                 5.9246                 2.6913

                     28                     29                     30
                      A                      A                      A
 Frequencies --   1355.5813              1387.0957              1412.5823
 Red. masses --      4.3272                 1.4239                 1.9770
 Frc consts  --      4.6850                 1.6141                 2.3243
 IR Inten    --     11.0592                19.1393                 6.2253
 Raman Activ --     58.0367                 0.9603                34.4362

                     31                     32                     33
                      A                      A                      A
 Frequencies --   1420.3683              1442.9186              1460.3928
 Red. masses --      1.4813                 2.6797                 1.2911
 Frc consts  --      1.7608                 3.2872                 1.6224
 IR Inten    --      9.8780                 0.3638                16.4923
 Raman Activ --      8.0344                78.2454                21.1633

                     34                     35                     36
                      A                      A                      A
 Frequencies --   1478.0332              1483.5608              1486.3815
 Red. masses --      1.0368                 1.0556                 1.0410
 Frc consts  --      1.3345                 1.3689                 1.3550
 IR Inten    --     20.9130                 6.7707                17.7003
 Raman Activ --     14.7249                26.3037                16.9805

                     37                     38                     39
                      A                      A                      A
 Frequencies --   1506.4632              1506.8487              1596.4919
 Red. masses --      1.1432                 1.1006                 3.7311
 Frc consts  --      1.5286                 1.4724                 5.6029
 IR Inten    --     16.1104                18.9361                78.3819
 Raman Activ --     29.6640                 2.2935                 6.2359

                     40                     41                     42
                      A                      A                      A
 Frequencies --   1605.9244              3045.3536              3074.9729
 Red. masses --      3.8638                 1.0346                 1.0315
 Frc consts  --      5.8710                 5.6533                 5.7465
 IR Inten    --     38.5283                15.0075                17.5344
 Raman Activ --      9.4213               310.3192               333.6701

                     43                     44                     45
                      A                      A                      A
 Frequencies --   3087.2340              3111.9420              3119.8649
 Red. masses --      1.0609                 1.1041                 1.1013
 Frc consts  --      5.9573                 6.2998                 6.3158
 IR Inten    --     13.0517                11.9134                28.1111
 Raman Activ --    219.7849               166.3391               175.7370

                     46                     47                     48
                      A                      A                      A
 Frequencies --   3141.3204              3154.0904              3173.0204
 Red. masses --      1.1082                 1.1072                 1.1066
 Frc consts  --      6.4429                 6.4899                 6.5642
 IR Inten    --     18.9799                 4.1926                 2.9705
 Raman Activ --     41.8606               127.0926                94.3548

                     49                     50                     51
                      A                      A                      A
 Frequencies --   3282.2740              3288.4383              3299.7122
 Red. masses --      1.0939                 1.1021                 1.1117
 Frc consts  --      6.9436                 7.0219                 7.1315
 IR Inten    --     15.1926                40.1138                 3.4566
 Raman Activ --     81.4021                48.7904               233.4463

 - Thermochemistry -
 -------------------
 Temperature   298.150 Kelvin.  Pressure   1.00000 Atm.
 Thermochemistry will use frequencies scaled by 0.9670.

 Molecular mass:   111.09222 amu.
 Principal axes and moments of inertia in atomic units:
                           1         2         3
     Eigenvalues --   342.298511418.570671607.74404
           X            0.29623   0.59018   0.75096
           Y            0.95308  -0.23395  -0.19210
           Z            0.06231   0.77263  -0.63179
 This molecule is an asymmetric top.
 Rotational symmetry number  1.
 Rotational temperatures (Kelvin)      0.25304     0.06106     0.05387
 Rotational constants (GHZ):           5.27242     1.27223     1.12253
 Zero-point vibrational energy     428608.2 (Joules/Mol)
                                  102.43983 (Kcal/Mol)
 Warning -- explicit consideration of  10 degrees of freedom as
           vibrations may cause significant error
 Vibrational temperatures:     86.39   113.16   187.84   297.42   322.13
          (Kelvin)            410.97   538.61   598.70   832.12   879.87
                              918.67   985.91  1041.36  1125.43  1177.24
                             1222.26  1345.65  1458.16  1465.73  1534.87
                             1541.54  1560.42  1584.93  1604.52  1646.50
                             1771.47  1827.62  1886.02  1929.86  1965.32
                             1976.15  2007.53  2031.84  2056.38  2064.07
                             2068.00  2095.94  2096.47  2221.19  2234.32
                             4236.99  4278.20  4295.26  4329.64  4340.66
                             4370.51  4388.28  4414.61  4566.62  4575.20
                             4590.88

 Zero-point correction=                           0.163248 (Hartree/Particle)
 Thermal correction to Energy=                    0.171788
 Thermal correction to Enthalpy=                  0.172732
 Thermal correction to Gibbs Free Energy=         0.129769
 Sum of electronic and zero-point Energies=           -344.574743
 Sum of electronic and thermal Energies=              -344.566204
 Sum of electronic and thermal Enthalpies=            -344.565259
 Sum of electronic and thermal Free Energies=         -344.608222

                     E (Thermal)             CV                S
                      KCal/Mol        Cal/Mol-Kelvin    Cal/Mol-Kelvin
 Total                  107.799             31.191             90.423
 Electronic               0.000              0.000              0.000
 Translational            0.889              2.981             40.032
 Rotational               0.889              2.981             28.148
 Vibrational            106.021             25.229             22.244
 Vibration     1          0.597              1.973              4.456
 Vibration     2          0.600              1.964              3.924
 Vibration     3          0.612              1.923              2.938
 Vibration     4          0.641              1.830              2.072
 Vibration     5          0.649              1.805              1.927
 Vibration     6          0.683              1.700              1.500
 Vibration     7          0.745              1.525              1.062
 Vibration     8          0.779              1.435              0.905
 Vibration     9          0.935              1.078              0.488
 Vibration    10          0.971              1.007              0.430

 Optimization completed.
    -- Stationary point found.
 Normal termination of Gaussian 16 at Fri Jun  2 11:44:20 2023.
