 Gaussian 16, Revision C.01,
 Gaussian 16:  ES64L-G16RevC.01  3-Jul-2019

 ----------------------------------------------------------------------
 #p freq=raman scale=0.967 pop=(nbo,full,hirshfeld) guess=read geom=all
 check b3lyp/6-311+G(d,p) int=grid=ultrafine EmpiricalDispersion=GD3BJ
 SCRF=(Solvent=ethanol) scf=(xqc,intrep,maxconventionalcycle=350) nosym
 m
 ----------------------------------------------------------------------

 Structure from the checkpoint file:  "/scratch1/svicchi/G09-659877.pbs02/02-freq/MEA-CO2_binding-site_index-0-freq.chk"
 --------------------------------
 MEA-CO2_binding-site_index-0.gjf
 --------------------------------
 Charge = -1 Multiplicity = 1

                          Input orientation:
 ---------------------------------------------------------------------
 Center     Atomic      Atomic             Coordinates (Angstroms)
 Number     Number       Type             X           Y           Z
 ---------------------------------------------------------------------
      1          8           0        2.407496   -1.155756   -0.358825
      2          6           0        3.259001   -0.066902    0.003900
      3          6           0        4.715337   -0.337663   -0.361083
      4          1           0        3.174621    0.145981    1.070615
      5          1           0        2.889138    0.794904   -0.560184
      6          7           0        5.528304    0.857643   -0.088185
      7          1           0        4.759844   -0.664985   -1.409824
      8          1           0        5.087152   -1.156819    0.257439
      9          1           0        5.321194    1.584854   -0.767173
     10          1           0        6.514391    0.642571   -0.193688
     11          6           0        2.304979   -2.246649    0.542972
     12          8           0        1.578089   -3.160102    0.104560
     13          8           0        2.922342   -2.160534    1.621922
 ---------------------------------------------------------------------

 SCF Done:  E(RB3LYP) =  -398.667470153     A.U. after    1 cycles

 Alpha  occ. eigenvalues --  -19.12049 -19.05782 -19.05456 -14.29471 -10.28413
 Alpha  occ. eigenvalues --  -10.20181 -10.18394  -1.06719  -0.97492  -0.94329
 Alpha  occ. eigenvalues --   -0.88051  -0.71836  -0.61502  -0.53108  -0.49440
 Alpha  occ. eigenvalues --   -0.45564  -0.45290  -0.43079  -0.42610  -0.40392
 Alpha  occ. eigenvalues --   -0.37619  -0.36382  -0.32325  -0.27234  -0.26570
 Alpha  occ. eigenvalues --   -0.25238  -0.24620  -0.22893
 Alpha virt. eigenvalues --    0.00937   0.02142   0.03491   0.04232   0.06133
 Alpha virt. eigenvalues --    0.07156   0.07529   0.08148   0.08650   0.09161
 Alpha virt. eigenvalues --    0.10604   0.11393   0.13359   0.13914   0.16193

 Mulliken charges:
               1
     1  O   -0.275933
     2  C   -0.217866
     3  C   -0.208586
     4  H    0.156365
     5  H    0.136271
     6  N   -0.523114
     7  H    0.133087
     8  H    0.151250
     9  H    0.233934
    10  H    0.247026
    11  C    0.322152
    12  O   -0.597992
    13  O   -0.556596
 Sum of Mulliken charges =  -1.00000

 Dipole moment (field-independent basis, Debye):
    X=             -9.1635    Y=             13.3062    Z=             -4.8230  Tot=             16.8608
 Quadrupole moment (field-independent basis, Debye-Ang):
   XX=            -59.0587   YY=            -83.5232   ZZ=            -53.7359
   XY=             24.5540   XZ=            -19.7737   YZ=              5.7755

  Exact polarizability:      74.315      12.923      83.951       4.915      -0.090      75.642
 Approx polarizability:      76.671      10.351      85.192       8.634       1.156      82.182

 Summary of Natural Population Analysis:

                                       Natural Population
                Natural  -----------------------------------------------
    Atom  No    Charge         Core      Valence    Rydberg      Total
 -----------------------------------------------------------------------
      O    1   -0.65188      1.99975     6.63107    0.02106     8.65188
      C    2   -0.03955      1.99918     4.01461    0.02576     6.03955
      C    3   -0.20918      1.99931     4.19155    0.01832     6.20918
      H    4    0.18463      0.00000     0.81225    0.00312     0.81537
      H    5    0.17072      0.00000     0.82723    0.00205     0.82928
      N    6   -0.87461      1.99953     5.85359    0.02149     7.87461
      H    7    0.16298      0.00000     0.83440    0.00262     0.83702
      H    8    0.19249      0.00000     0.80504    0.00247     0.80751
      H    9    0.35573      0.00000     0.64146    0.00281     0.64427
      H   10    0.36343      0.00000     0.63428    0.00229     0.63657
      C   11    0.98245      1.99965     2.95383    0.06408     5.01755
      O   12   -0.81940      1.99975     6.80676    0.01289     8.81940
      O   13   -0.81779      1.99975     6.80563    0.01241     8.81779
 =======================================================================
   * Total *   -1.00000     13.99694    41.81170    0.19137    56.00000

                      1                      2                      3
                      A                      A                      A
 Frequencies --     74.4645                83.9291                89.1562
 Red. masses --      3.6483                 4.2648                 3.5102
 Frc consts  --      0.0119                 0.0177                 0.0164
 IR Inten    --      4.3868                 3.9570                 7.5476
 Raman Activ --      2.0494                 0.1319                 1.4758

                      4                      5                      6
                      A                      A                      A
 Frequencies --    227.4638               306.1705               324.2894
 Red. masses --      1.1355                 3.5064                 3.0077
 Frc consts  --      0.0346                 0.1937                 0.1864
 IR Inten    --     56.2585                21.8939                15.1318
 Raman Activ --      0.2055                 0.3177                 1.1895

                      7                      8                      9
                      A                      A                      A
 Frequencies --    407.6736               624.4631               668.9917
 Red. masses --      7.7022                 7.6545                 4.6000
 Frc consts  --      0.7542                 1.7587                 1.2130
 IR Inten    --      0.3187                 8.1879                17.3972
 Raman Activ --      4.9451                 2.5201                 2.7598

                     10                     11                     12
                      A                      A                      A
 Frequencies --    794.1889               814.9855               844.1378
 Red. masses --      1.2727                12.4580                 4.7663
 Frc consts  --      0.4730                 4.8753                 2.0010
 IR Inten    --     51.2502                39.9914               378.5548
 Raman Activ --      2.1505                 0.6840                10.7464

                     13                     14                     15
                      A                      A                      A
 Frequencies --    865.8156               977.9495              1056.7173
 Red. masses --      1.3464                 2.0076                 5.0350
 Frc consts  --      0.5946                 1.1313                 3.3126
 IR Inten    --    169.5163                16.9373               257.2426
 Raman Activ --     13.2881                11.4309                 1.2529

                     16                     17                     18
                      A                      A                      A
 Frequencies --   1071.5124              1121.2080              1215.3984
 Red. masses --      4.0771                 1.8278                 1.4773
 Frc consts  --      2.7580                 1.3538                 1.2858
 IR Inten    --    124.5826                 6.4473                32.3805
 Raman Activ --     21.0555                 3.9476                 1.4351

                     19                     20                     21
                      A                      A                      A
 Frequencies --   1279.6949              1296.4370              1329.5133
 Red. masses --      4.7857                 1.3300                 1.0709
 Frc consts  --      4.6175                 1.3171                 1.1153
 IR Inten    --    446.4198                15.1780                 2.2819
 Raman Activ --     17.9243                 2.3232                28.0592

                     22                     23                     24
                      A                      A                      A
 Frequencies --   1383.3567              1427.6382              1474.1317
 Red. masses --      1.3408                 1.4536                 1.0940
 Frc consts  --      1.5117                 1.7455                 1.4007
 IR Inten    --     23.3997                10.4789                25.8748
 Raman Activ --      1.2398                 3.0571                21.9554

                     25                     26                     27
                      A                      A                      A
 Frequencies --   1509.6350              1648.4420              1667.5800
 Red. masses --      1.0855                 1.0888                12.1190
 Frc consts  --      1.4575                 1.7432                19.8559
 IR Inten    --      5.1308                47.0728              1245.7393
 Raman Activ --      9.1479                 4.6295                 7.1018

                     28                     29                     30
                      A                      A                      A
 Frequencies --   2969.6210              3032.1940              3078.5597
 Red. masses --      1.0719                 1.0620                 1.0886
 Frc consts  --      5.5692                 5.7529                 6.0788
 IR Inten    --    113.0842                80.9603                25.6809
 Raman Activ --    294.9411               316.6276               168.2384

                     31                     32                     33
                      A                      A                      A
 Frequencies --   3097.1296              3494.8252              3569.1397
 Red. masses --      1.1035                 1.0510                 1.0921
 Frc consts  --      6.2363                 7.5631                 8.1965
 IR Inten    --     58.1690                 0.0551                 4.5481
 Raman Activ --     56.1627               232.7220               121.4288

 - Thermochemistry -
 -------------------
 Temperature   298.150 Kelvin.  Pressure   1.00000 Atm.
 Thermochemistry will use frequencies scaled by 0.9670.

 Molecular mass:   104.03477 amu.
 Principal axes and moments of inertia in atomic units:
                           1         2         3
     Eigenvalues --   245.391631350.655151457.10028
           X            0.69071   0.46707  -0.55205
           Y            0.70517  -0.26599   0.65725
           Z           -0.16014   0.84327   0.51308
 This molecule is an asymmetric top.
 Rotational symmetry number  1.
 Rotational temperatures (Kelvin)      0.35296     0.06413     0.05944
 Rotational constants (GHZ):           7.35453     1.33620     1.23858
 Zero-point vibrational energy     253489.5 (Joules/Mol)
                                   60.58545 (Kcal/Mol)
 Warning -- explicit consideration of   8 degrees of freedom as
           vibrations may cause significant error
 Vibrational temperatures:    103.60   116.77   124.04   316.47   425.97
          (Kelvin)            451.18   567.20   868.81   930.77  1104.95
                             1133.89  1174.45  1204.61  1360.62  1470.21
                             1490.79  1559.93  1690.98  1780.44  1803.73
                             1849.75  1924.66  1986.27  2050.96  2100.35
                             2293.47  2320.10  4131.63  4218.68  4283.19
                             4309.03  4862.34  4965.73

 Zero-point correction=                           0.096549 (Hartree/Particle)
 Thermal correction to Energy=                    0.104216
 Thermal correction to Enthalpy=                  0.105160
 Thermal correction to Gibbs Free Energy=         0.063747
 Sum of electronic and zero-point Energies=           -398.570921
 Sum of electronic and thermal Energies=              -398.563254
 Sum of electronic and thermal Enthalpies=            -398.562310
 Sum of electronic and thermal Free Energies=         -398.603723

                     E (Thermal)             CV                S
                      KCal/Mol        Cal/Mol-Kelvin    Cal/Mol-Kelvin
 Total                   65.397             25.711             87.162
 Electronic               0.000              0.000              0.000
 Translational            0.889              2.981             39.836
 Rotational               0.889              2.981             27.670
 Vibrational             63.619             19.749             19.656
 Vibration     1          0.598              1.967              4.098
 Vibration     2          0.600              1.962              3.863
 Vibration     3          0.601              1.959              3.744
 Vibration     4          0.647              1.811              1.959
 Vibration     5          0.690              1.681              1.439
 Vibration     6          0.701              1.648              1.343
 Vibration     7          0.761              1.483              0.984
 Vibration     8          0.962              1.024              0.443

 Optimization completed.
    -- Stationary point found.
 Normal termination of Gaussian 16 at Fri Jun  2 11:46:24 2023.
