 Gaussian 16, Revision C.01,
 Gaussian 16:  ES64L-G16RevC.01  3-Jul-2019

 ----------------------------------------------------------------------
 #p freq=raman scale=0.967 pop=(nbo,full,hirshfeld) guess=read geom=all
 check b3lyp/6-311+G(d,p) int=grid=ultrafine EmpiricalDispersion=GD3BJ
 SCRF=(Solvent=ethanol) scf=(xqc,intrep,maxconventionalcycle=350) nosym
 m
 ----------------------------------------------------------------------

 Structure from the checkpoint file:  "/scratch1/svicchi/G09-659878.pbs02/02-freq/MEA-H_dissociation-site_index-0-freq.chk"
 -----------------------------------
 MEA-H_dissociation-site_index-0.gjf
 -----------------------------------
 Charge = -1 Multiplicity = 1

                          Input orientation:
 ---------------------------------------------------------------------
 Center     Atomic      Atomic             Coordinates (Angstroms)
 Number     Number       Type             X           Y           Z
 ---------------------------------------------------------------------
      1          8           0        2.073990   -0.749391    0.068411
      2          6           0        3.057397    0.205002    0.054220
      3          6           0        4.489211   -0.362018   -0.048445
      4          1           0        3.057794    0.861263    0.959726
      5          1           0        2.963247    0.925868   -0.801905
      6          7           0        5.500529    0.713465   -0.100805
      7          1           0        4.529397   -1.028773   -0.924382
      8          1           0        4.690792   -0.977559    0.835406
      9          1           0        5.363620    1.265210   -0.943817
     10          1           0        6.434987    0.321474   -0.170443
 ---------------------------------------------------------------------

 SCF Done:  E(RB3LYP) =  -209.965626410     A.U. after    1 cycles

 Alpha  occ. eigenvalues --  -18.99006 -14.28336 -10.16262 -10.16152  -0.88317
 Alpha  occ. eigenvalues --   -0.85797  -0.66181  -0.55230  -0.46775  -0.43403
 Alpha  occ. eigenvalues --   -0.40597  -0.34969  -0.33054  -0.31692  -0.23693
 Alpha  occ. eigenvalues --   -0.17210  -0.16876
 Alpha virt. eigenvalues --    0.01376   0.03167   0.03725   0.04870   0.07729
 Alpha virt. eigenvalues --    0.08478   0.08608   0.10986   0.13037   0.13538
 Alpha virt. eigenvalues --    0.15016   0.18810   0.19826   0.20573   0.21425

 Mulliken charges:
               1
     1  O   -0.887259
     2  C   -0.206388
     3  C   -0.143649
     4  H    0.054187
     5  H    0.036961
     6  N   -0.540446
     7  H    0.110286
     8  H    0.119031
     9  H    0.221735
    10  H    0.235543
 Sum of Mulliken charges =  -1.00000

 Dipole moment (field-independent basis, Debye):
    X=            -10.0433    Y=              2.5995    Z=             -1.7660  Tot=             10.5235
 Quadrupole moment (field-independent basis, Debye-Ang):
   XX=            -50.6494   YY=            -35.1825   ZZ=            -29.5198
   XY=              1.0918   XZ=             -8.6253   YZ=             -2.1792

  Exact polarizability:      63.983       4.254      68.094      -0.438       0.975      57.315
 Approx polarizability:      61.306       3.772      66.334      -0.034      -0.090      57.860

 Summary of Natural Population Analysis:

                                       Natural Population
                Natural  -----------------------------------------------
    Atom  No    Charge         Core      Valence    Rydberg      Total
 -----------------------------------------------------------------------
      O    1   -1.07113      1.99986     7.05230    0.01898     9.07113
      C    2   -0.00742      1.99933     3.97212    0.03597     6.00742
      C    3   -0.20888      1.99932     4.18577    0.02380     6.20888
      H    4    0.08583      0.00000     0.90893    0.00524     0.91417
      H    5    0.07658      0.00000     0.91866    0.00476     0.92342
      N    6   -0.88624      1.99954     5.86329    0.02341     7.88624
      H    7    0.14349      0.00000     0.85214    0.00437     0.85651
      H    8    0.16264      0.00000     0.83347    0.00389     0.83736
      H    9    0.34986      0.00000     0.64696    0.00317     0.65014
      H   10    0.35528      0.00000     0.64209    0.00263     0.64472
 =======================================================================
   * Total *   -1.00000      7.99804    25.87573    0.12623    34.00000

                      1                      2                      3
                      A                      A                      A
 Frequencies --    167.0161               210.8389               312.1992
 Red. masses --      2.5643                 1.1465                 3.1306
 Frc consts  --      0.0421                 0.0300                 0.1798
 IR Inten    --     34.1044                45.3893                46.5661
 Raman Activ --      1.4841                 1.5367                 0.3327

                      4                      5                      6
                      A                      A                      A
 Frequencies --    480.5125               794.1951               864.9617
 Red. masses --      5.9884                 1.1065                 1.2990
 Frc consts  --      0.8146                 0.4112                 0.5726
 IR Inten    --      8.0457                25.4858               176.6062
 Raman Activ --      7.4370                 2.4776                10.8103

                      7                      8                      9
                      A                      A                      A
 Frequencies --    944.8839              1036.9169              1085.1684
 Red. masses --      2.1368                 3.3859                 3.9347
 Frc consts  --      1.1240                 2.1450                 2.7300
 IR Inten    --     29.9139                39.7821               339.5827
 Raman Activ --     15.7662                13.7433                25.2352

                     10                     11                     12
                      A                      A                      A
 Frequencies --   1120.8087              1190.9365              1264.1878
 Red. masses --      2.0109                 1.4177                 1.2247
 Frc consts  --      1.4884                 1.1847                 1.1532
 IR Inten    --     59.7562                 1.3350                 2.7627
 Raman Activ --     18.2737                 6.5018                 7.2594

                     13                     14                     15
                      A                      A                      A
 Frequencies --   1297.5706              1365.9298              1393.0093
 Red. masses --      1.0717                 1.2705                 1.3459
 Frc consts  --      1.0631                 1.3966                 1.5387
 IR Inten    --      8.9764                50.5555                15.6917
 Raman Activ --     41.5268                 9.7302                24.3152

                     16                     17                     18
                      A                      A                      A
 Frequencies --   1482.9385              1502.9237              1634.8728
 Red. masses --      1.0844                 1.0888                 1.0870
 Frc consts  --      1.4050                 1.4491                 1.7118
 IR Inten    --     13.7597                15.1255                60.2163
 Raman Activ --     49.7622                 2.6443                 4.6515

                     19                     20                     21
                      A                      A                      A
 Frequencies --   2673.5706              2733.3408              2941.4886
 Red. masses --      1.0836                 1.0613                 1.0702
 Frc consts  --      4.5634                 4.6718                 5.4555
 IR Inten    --    472.2007               481.9404               184.2089
 Raman Activ --    666.3679               572.3019               327.3712

                     22                     23                     24
                      A                      A                      A
 Frequencies --   3028.3565              3481.9394              3553.5138
 Red. masses --      1.0904                 1.0503                 1.0921
 Frc consts  --      5.8917                 7.5024                 8.1250
 IR Inten    --    106.1490                 1.3938                 0.7833
 Raman Activ --    213.6846               246.1745               141.0594

 - Thermochemistry -
 -------------------
 Temperature   298.150 Kelvin.  Pressure   1.00000 Atm.
 Thermochemistry will use frequencies scaled by 0.9670.

 Molecular mass:    60.04494 amu.
 Principal axes and moments of inertia in atomic units:
                           1         2         3
     Eigenvalues --    59.30572 455.35674 487.25329
           X            0.94849  -0.31262   0.05138
           Y            0.31048   0.94949   0.04555
           Z           -0.06302  -0.02725   0.99764
 This molecule is an asymmetric top.
 Rotational symmetry number  1.
 Rotational temperatures (Kelvin)      1.46046     0.19021     0.17776
 Rotational constants (GHZ):          30.43115     3.96336     3.70391
 Zero-point vibrational energy     211473.0 (Joules/Mol)
                                   50.54327 (Kcal/Mol)
 Warning -- explicit consideration of   4 degrees of freedom as
           vibrations may cause significant error
 Vibrational temperatures:    232.37   293.34   434.36   668.54  1104.96
          (Kelvin)           1203.42  1314.61  1442.66  1509.79  1559.38
                             1656.95  1758.86  1805.31  1900.41  1938.09
                             2063.21  2091.01  2274.59  3719.73  3802.89
                             4092.49  4213.34  4844.41  4943.99

 Zero-point correction=                           0.080546 (Hartree/Particle)
 Thermal correction to Energy=                    0.085612
 Thermal correction to Enthalpy=                  0.086556
 Thermal correction to Gibbs Free Energy=         0.053265
 Sum of electronic and zero-point Energies=           -209.885081
 Sum of electronic and thermal Energies=              -209.880014
 Sum of electronic and thermal Enthalpies=            -209.879070
 Sum of electronic and thermal Free Energies=         -209.912361

                     E (Thermal)             CV                S
                      KCal/Mol        Cal/Mol-Kelvin    Cal/Mol-Kelvin
 Total                   53.722             16.565             70.067
 Electronic               0.000              0.000              0.000
 Translational            0.889              2.981             38.198
 Rotational               0.889              2.981             24.091
 Vibrational             51.945             10.603              7.779
 Vibration     1          0.622              1.890              2.532
 Vibration     2          0.640              1.834              2.098
 Vibration     3          0.694              1.670              1.406
 Vibration     4          0.822              1.328              0.753

 Optimization completed.
    -- Stationary point found.
 Normal termination of Gaussian 16 at Fri Jun  2 11:33:38 2023.
