 Gaussian 16, Revision C.01,
 Gaussian 16:  ES64L-G16RevC.01  3-Jul-2019

 ----------------------------------------------------------------------
 #p freq=raman scale=0.967 pop=(nbo,full,hirshfeld) guess=read geom=all
 check b3lyp/6-311+G(d,p) int=grid=ultrafine EmpiricalDispersion=GD3BJ
 SCRF=(Solvent=ethanol) scf=(xqc,intrep,maxconventionalcycle=350) nosym
 m
 ----------------------------------------------------------------------

 Structure from the checkpoint file:  "/scratch1/svicchi/G09-659737.pbs02/02-freq/choline-CO2_binding-site_index-17-freq.chk"
 -------------------------------------
 choline-CO2_binding-site_index-17.gjf
 -------------------------------------
 Charge =  0 Multiplicity = 1

                          Input orientation:
 ---------------------------------------------------------------------
 Center     Atomic      Atomic             Coordinates (Angstroms)
 Number     Number       Type             X           Y           Z
 ---------------------------------------------------------------------
      1          7           0       -4.781376    1.731019    0.070737
      2          6           0       -6.086236    1.783557   -0.674853
      3          1           0       -6.259147    2.804414   -1.008417
      4          1           0       -6.881705    1.468991   -0.003467
      5          1           0       -6.029333    1.112922   -1.529087
      6          6           0       -4.889096    2.615030    1.283955
      7          1           0       -5.771050    2.311653    1.843794
      8          1           0       -4.988394    3.646722    0.956075
      9          1           0       -4.002279    2.487136    1.892692
     10          6           0       -4.521626    0.316326    0.510543
     11          1           0       -3.622977    0.306106    1.122861
     12          1           0       -4.401892   -0.305975   -0.373968
     13          1           0       -5.379804   -0.019380    1.088733
     14          6           0       -3.695791    2.219487   -0.882036
     15          6           0       -2.248675    2.065542   -0.441048
     16          1           0       -3.924006    3.265639   -1.084673
     17          1           0       -3.835451    1.649381   -1.800913
     18          8           0       -1.854337    2.998268    0.554749
     19          1           0       -1.653852    2.275575   -1.334696
     20          1           0       -2.027349    1.049909   -0.117688
     21          6           0       -1.572961    2.510070    1.871559
     22          8           0       -1.823990    1.308558    2.088643
     23          8           0       -1.133906    3.396151    2.617270
 ---------------------------------------------------------------------

 SCF Done:  E(RB3LYP) =  -517.092875073     A.U. after    1 cycles

 Alpha  occ. eigenvalues --  -19.13669 -19.07451 -19.06947 -14.45805 -10.29958
 Alpha  occ. eigenvalues --  -10.24026 -10.23435 -10.23220 -10.22856 -10.22600
 Alpha  occ. eigenvalues --   -1.08451  -1.03318  -0.99326  -0.96198  -0.79314
 Alpha  occ. eigenvalues --   -0.76395  -0.76095  -0.69090  -0.62919  -0.56220
 Alpha  occ. eigenvalues --   -0.54680  -0.53447  -0.52607  -0.47704  -0.46894
 Alpha  occ. eigenvalues --   -0.45655  -0.45376  -0.44574  -0.42422  -0.42077
 Alpha  occ. eigenvalues --   -0.41879  -0.41645  -0.41423  -0.39962  -0.39218
 Alpha  occ. eigenvalues --   -0.34497  -0.29038  -0.28273  -0.26636  -0.24502
 Alpha virt. eigenvalues --   -0.00284   0.01721   0.01897   0.02199   0.02935
 Alpha virt. eigenvalues --    0.03749   0.04110   0.04462   0.05023   0.05702
 Alpha virt. eigenvalues --    0.06422   0.07475   0.07978   0.08295   0.08718

 Mulliken charges:
               1
     1  N   -0.315555
     2  C   -0.326257
     3  H    0.208685
     4  H    0.204703
     5  H    0.209803
     6  C   -0.265721
     7  H    0.201792
     8  H    0.214951
     9  H    0.209447
    10  C   -0.327224
    11  H    0.236011
    12  H    0.206827
    13  H    0.199926
    14  C   -0.114643
    15  C   -0.320973
    16  H    0.229000
    17  H    0.213159
    18  O   -0.225071
    19  H    0.182604
    20  H    0.188934
    21  C    0.240886
    22  O   -0.513999
    23  O   -0.537285
 Sum of Mulliken charges =  -0.00000

 Dipole moment (field-independent basis, Debye):
    X=            -15.2307    Y=             -4.4325    Z=            -11.2711  Tot=             19.4591
 Quadrupole moment (field-independent basis, Debye-Ang):
   XX=             38.4446   YY=            -84.2528   ZZ=            -83.6817
   XY=            -22.0499   XZ=             14.4767   YZ=            -28.7910

  Exact polarizability:     110.962       7.216     113.541       8.466       4.270     118.433
 Approx polarizability:     113.753       7.019     129.298       5.706       3.825     125.592

 Summary of Natural Population Analysis:

                                       Natural Population
                Natural  -----------------------------------------------
    Atom  No    Charge         Core      Valence    Rydberg      Total
 -----------------------------------------------------------------------
      N    1   -0.34380      1.99949     5.33457    0.00973     7.34380
      C    2   -0.34629      1.99930     4.33333    0.01366     6.34629
      H    3    0.22588      0.00000     0.77305    0.00107     0.77412
      H    4    0.22529      0.00000     0.77355    0.00116     0.77471
      H    5    0.22464      0.00000     0.77430    0.00107     0.77536
      C    6   -0.34877      1.99929     4.33432    0.01516     6.34877
      H    7    0.22072      0.00000     0.77812    0.00116     0.77928
      H    8    0.22350      0.00000     0.77538    0.00111     0.77650
      H    9    0.23368      0.00000     0.76476    0.00156     0.76632
      C   10   -0.36752      1.99929     4.35374    0.01449     6.36752
      H   11    0.25147      0.00000     0.74700    0.00153     0.74853
      H   12    0.22131      0.00000     0.77763    0.00106     0.77869
      H   13    0.22263      0.00000     0.77626    0.00111     0.77737
      C   14   -0.17946      1.99919     4.16162    0.01865     6.17946
      C   15   -0.06634      1.99915     4.04422    0.02296     6.06634
      H   16    0.22719      0.00000     0.77120    0.00161     0.77281
      H   17    0.22886      0.00000     0.76972    0.00142     0.77114
      O   18   -0.65096      1.99975     6.63195    0.01926     8.65096
      H   19    0.20296      0.00000     0.79521    0.00183     0.79704
      H   20    0.21346      0.00000     0.78428    0.00226     0.78654
      C   21    0.97808      1.99963     2.95770    0.06458     5.02192
      O   22   -0.81060      1.99974     6.79896    0.01190     8.81060
      O   23   -0.78594      1.99974     6.77365    0.01255     8.78594
 =======================================================================
   * Total *    0.00000     19.99458    59.78453    0.22089    80.00000

                      1                      2                      3
                      A                      A                      A
 Frequencies --     50.6413                73.6333               100.2427
 Red. masses --      4.2202                 5.5460                 6.6907
 Frc consts  --      0.0064                 0.0177                 0.0396
 IR Inten    --      6.1110                 5.3403                20.3798
 Raman Activ --      1.1066                 2.5778                 0.9075

                      4                      5                      6
                      A                      A                      A
 Frequencies --    152.0580               221.8406               246.0874
 Red. masses --      2.7495                 3.1546                 1.1969
 Frc consts  --      0.0375                 0.0915                 0.0427
 IR Inten    --      8.5577                 5.0613                 2.4093
 Raman Activ --      0.4469                 0.1114                 0.0479

                      7                      8                      9
                      A                      A                      A
 Frequencies --    277.7531               305.6688               315.7514
 Red. masses --      2.3059                 1.3187                 1.2198
 Frc consts  --      0.1048                 0.0726                 0.0717
 IR Inten    --      5.0462                 4.0370                 3.0052
 Raman Activ --      0.8884                 0.5739                 0.5430

                     10                     11                     12
                      A                      A                      A
 Frequencies --    376.6920               380.0661               415.6841
 Red. masses --      2.1999                 2.0354                 2.4505
 Frc consts  --      0.1839                 0.1732                 0.2495
 IR Inten    --      0.5079                 5.1554                 0.4564
 Raman Activ --      0.9615                 1.6475                 1.6555

                     13                     14                     15
                      A                      A                      A
 Frequencies --    448.0810               460.3541               535.2173
 Red. masses --      2.4492                 2.1209                 2.9972
 Frc consts  --      0.2897                 0.2648                 0.5059
 IR Inten    --      0.3164                 0.5567                 8.2230
 Raman Activ --      0.5683                 0.3852                 3.0190

                     16                     17                     18
                      A                      A                      A
 Frequencies --    576.6102               665.8747               713.2904
 Red. masses --      3.9824                 5.3818                 3.8162
 Frc consts  --      0.7801                 1.4059                 1.1440
 IR Inten    --      3.9418                10.2995                 2.3032
 Raman Activ --      4.7638                 6.4214                29.1183

                     19                     20                     21
                      A                      A                      A
 Frequencies --    808.3391               810.9866               873.7825
 Red. masses --      9.4325                 7.8098                 2.8652
 Frc consts  --      3.6313                 3.0263                 1.2889
 IR Inten    --    166.2126               257.6374                75.0219
 Raman Activ --      2.9178                 2.8615                15.7649

                     22                     23                     24
                      A                      A                      A
 Frequencies --    904.3986               956.4484               967.9685
 Red. masses --      2.5747                 2.5970                 2.6921
 Frc consts  --      1.2408                 1.3997                 1.4862
 IR Inten    --     31.0157                45.0280               129.2409
 Raman Activ --      2.4956                12.3631                11.9939

                     25                     26                     27
                      A                      A                      A
 Frequencies --   1013.7220              1077.6664              1086.9583
 Red. masses --      2.2574                 2.4583                 1.2043
 Frc consts  --      1.3668                 1.6821                 0.8383
 IR Inten    --      5.3922               153.8656                 3.2865
 Raman Activ --      6.3103                 7.2593                 0.1003

                     28                     29                     30
                      A                      A                      A
 Frequencies --   1102.4836              1149.6131              1166.7183
 Red. masses --      2.1949                 1.4056                 1.5511
 Frc consts  --      1.5718                 1.0945                 1.2440
 IR Inten    --    112.9345                15.2408                 2.6925
 Raman Activ --      2.8399                 5.2579                 2.8221

                     31                     32                     33
                      A                      A                      A
 Frequencies --   1242.5473              1267.1115              1281.0983
 Red. masses --      1.4177                 1.7974                 5.5058
 Frc consts  --      1.2896                 1.7003                 5.3240
 IR Inten    --      3.3286                32.1645               341.2256
 Raman Activ --      4.7455                 5.2844                21.0188

                     34                     35                     36
                      A                      A                      A
 Frequencies --   1298.8708              1320.5669              1368.9174
 Red. masses --      1.8348                 1.3477                 1.2650
 Frc consts  --      1.8238                 1.3848                 1.3967
 IR Inten    --      0.6028                 1.2224                 9.1689
 Raman Activ --      3.8942                11.1920                10.6032

                     37                     38                     39
                      A                      A                      A
 Frequencies --   1415.3561              1424.5194              1447.5556
 Red. masses --      1.2855                 1.3680                 1.1438
 Frc consts  --      1.5172                 1.6356                 1.4121
 IR Inten    --     19.9366                 3.4033                 0.8814
 Raman Activ --      2.2641                 3.3263                 2.0822

                     40                     41                     42
                      A                      A                      A
 Frequencies --   1453.4322              1470.4847              1475.5009
 Red. masses --      1.1493                 1.0945                 1.0656
 Frc consts  --      1.4304                 1.3944                 1.3669
 IR Inten    --      6.4340                 5.3121                18.1596
 Raman Activ --      2.0176                 2.6405                24.9118

                     43                     44                     45
                      A                      A                      A
 Frequencies --   1476.5476              1486.1869              1492.1801
 Red. masses --      1.0559                 1.0472                 1.0564
 Frc consts  --      1.3564                 1.3628                 1.3859
 IR Inten    --      4.3591                 7.9089                23.7484
 Raman Activ --      9.2972                15.6026                12.1757

                     46                     47                     48
                      A                      A                      A
 Frequencies --   1502.2226              1510.9625              1516.2497
 Red. masses --      1.1392                 1.0705                 1.0613
 Frc consts  --      1.5147                 1.4399                 1.4376
 IR Inten    --     29.7312                34.3726                34.1270
 Raman Activ --      9.2902                 3.9970                 3.1618

                     49                     50                     51
                      A                      A                      A
 Frequencies --   1533.8205              1699.2857              3048.0572
 Red. masses --      1.0579                11.5489                 1.0679
 Frc consts  --      1.4664                19.6482                 5.8456
 IR Inten    --     57.6992              1252.1496                45.9089
 Raman Activ --      2.1248                 8.5845               241.1247

                     52                     53                     54
                      A                      A                      A
 Frequencies --   3067.0812              3076.1759              3082.2343
 Red. masses --      1.0308                 1.0372                 1.0510
 Frc consts  --      5.7134                 5.7830                 5.8830
 IR Inten    --     24.3601                 4.2708                23.4198
 Raman Activ --    149.5094                38.6797               346.5064

                     55                     56                     57
                      A                      A                      A
 Frequencies --   3090.5982              3121.2579              3138.5745
 Red. masses --      1.0347                 1.0976                 1.1056
 Frc consts  --      5.8231                 6.3001                 6.4166
 IR Inten    --     14.9851                 3.7139                12.1826
 Raman Activ --    499.6910               105.5399                51.9527

                     58                     59                     60
                      A                      A                      A
 Frequencies --   3164.0124              3168.8848              3171.0241
 Red. masses --      1.1081                 1.1098                 1.1082
 Frc consts  --      6.5360                 6.5662                 6.5653
 IR Inten    --      5.3187                13.1878                 0.5010
 Raman Activ --     52.7560                78.4628                18.5643

                     61                     62                     63
                      A                      A                      A
 Frequencies --   3173.5224              3174.6453              3214.5995
 Red. masses --      1.1079                 1.1076                 1.1050
 Frc consts  --      6.5738                 6.5770                 6.7276
 IR Inten    --      7.3405                11.9984                 3.5400
 Raman Activ --    102.9976               192.2728               102.9992

 - Thermochemistry -
 -------------------
 Temperature   298.150 Kelvin.  Pressure   1.00000 Atm.
 Thermochemistry will use frequencies scaled by 0.9670.

 Molecular mass:   147.08954 amu.
 Principal axes and moments of inertia in atomic units:
                           1         2         3
     Eigenvalues --   735.110442241.188252343.51849
           X            0.84629  -0.39383  -0.35872
           Y            0.23895  -0.32120   0.91637
           Z            0.47612   0.86124   0.17772
 This molecule is an asymmetric top.
 Rotational symmetry number  1.
 Warning -- assumption of classical behavior for rotation
           may cause significant error
 Rotational temperatures (Kelvin)      0.11782     0.03865     0.03696
 Rotational constants (GHZ):           2.45506     0.80526     0.77010
 Zero-point vibrational energy     506723.9 (Joules/Mol)
                                  121.10993 (Kcal/Mol)
 Warning -- explicit consideration of  16 degrees of freedom as
           vibrations may cause significant error
 Vibrational temperatures:     70.46   102.45   139.47   211.56   308.65
          (Kelvin)            342.38   386.44   425.28   439.30   524.09
                              528.78   578.34   623.41   640.49   744.65
                              802.24   926.43   992.40  1124.64  1128.32
                             1215.69  1258.29  1330.70  1346.73  1410.39
                             1499.35  1512.28  1533.88  1599.45  1623.25
                             1728.75  1762.93  1782.39  1807.12  1837.30
                             1904.57  1969.18  1981.93  2013.98  2022.16
                             2045.88  2052.86  2054.32  2067.73  2076.07
                             2090.04  2102.20  2109.55  2134.00  2364.21
                             4240.75  4267.22  4279.88  4288.30  4299.94
                             4342.60  4366.69  4402.08  4408.86  4411.84
                             4415.31  4416.88  4472.46

 Zero-point correction=                           0.193001 (Hartree/Particle)
 Thermal correction to Energy=                    0.204121
 Thermal correction to Enthalpy=                  0.205066
 Thermal correction to Gibbs Free Energy=         0.156320
 Sum of electronic and zero-point Energies=           -516.899874
 Sum of electronic and thermal Energies=              -516.888754
 Sum of electronic and thermal Enthalpies=            -516.887809
 Sum of electronic and thermal Free Energies=         -516.936555

                     E (Thermal)             CV                S
                      KCal/Mol        Cal/Mol-Kelvin    Cal/Mol-Kelvin
 Total                  128.088             41.517            102.594
 Electronic               0.000              0.000              0.000
 Translational            0.889              2.981             40.868
 Rotational               0.889              2.981             29.736
 Vibrational            126.311             35.556             31.990
 Vibration     1          0.595              1.978              4.859
 Vibration     2          0.598              1.968              4.120
 Vibration     3          0.603              1.951              3.515
 Vibration     4          0.617              1.906              2.710
 Vibration     5          0.644              1.819              2.005
 Vibration     6          0.656              1.783              1.818
 Vibration     7          0.673              1.731              1.605
 Vibration     8          0.690              1.682              1.442
 Vibration     9          0.696              1.664              1.388
 Vibration    10          0.738              1.546              1.104
 Vibration    11          0.740              1.539              1.090
 Vibration    12          0.768              1.466              0.955
 Vibration    13          0.794              1.398              0.848
 Vibration    14          0.805              1.372              0.811
 Vibration    15          0.873              1.211              0.616
 Vibration    16          0.913              1.123              0.529

 Optimization completed.
    -- Stationary point found.
 Normal termination of Gaussian 16 at Fri Jun  2 14:57:39 2023.
