 Gaussian 16, Revision C.01,
 Gaussian 16:  ES64L-G16RevC.01  3-Jul-2019

 ----------------------------------------------------------------------
 #p freq=raman scale=0.967 pop=(nbo,full,hirshfeld) guess=read geom=all
 check b3lyp/6-311+G(d,p) int=grid=ultrafine EmpiricalDispersion=GD3BJ
 SCRF=(Solvent=ethanol) scf=(xqc,intrep,maxconventionalcycle=350) nosym
 m
 ----------------------------------------------------------------------

 Structure from the checkpoint file:  "/scratch1/svicchi/G09-659876.pbs02/02-freq/MEA-CO2_binding-site_index-5-freq.chk"
 --------------------------------
 MEA-CO2_binding-site_index-5.gjf
 --------------------------------
 Charge = -1 Multiplicity = 1

                          Input orientation:
 ---------------------------------------------------------------------
 Center     Atomic      Atomic             Coordinates (Angstroms)
 Number     Number       Type             X           Y           Z
 ---------------------------------------------------------------------
      1          8           0        1.984064   -0.871989    0.375674
      2          6           0        2.939078    0.175281    0.599334
      3          6           0        4.264823   -0.084911   -0.118217
      4          1           0        3.098219    0.211309    1.678949
      5          1           0        2.537921    1.141731    0.277606
      6          7           0        5.214314    0.990796    0.093315
      7          1           0        4.070679   -0.201246   -1.189564
      8          1           0        4.694789   -1.020563    0.250278
      9          1           0        1.759794   -0.878424   -0.561558
     10          1           0        6.037375    0.788639    0.637831
     11          6           0        5.328366    2.094169   -0.775695
     12          8           0        4.418182    2.241758   -1.636876
     13          8           0        6.333762    2.840347   -0.589859
 ---------------------------------------------------------------------

 SCF Done:  E(RB3LYP) =  -398.668520817     A.U. after    2 cycles

 Alpha  occ. eigenvalues --  -19.12531 -19.04334 -19.04153 -14.29650 -10.25983
 Alpha  occ. eigenvalues --  -10.20640 -10.18720  -1.02281  -1.01807  -0.92080
 Alpha  occ. eigenvalues --   -0.87810  -0.72219  -0.62166  -0.54517  -0.50544
 Alpha  occ. eigenvalues --   -0.47062  -0.45333  -0.42677  -0.41144  -0.38728
 Alpha  occ. eigenvalues --   -0.38144  -0.36478  -0.33277  -0.28780  -0.25136
 Alpha  occ. eigenvalues --   -0.23915  -0.22558  -0.21821
 Alpha virt. eigenvalues --    0.01102   0.01706   0.03469   0.03679   0.05924
 Alpha virt. eigenvalues --    0.06885   0.07313   0.07431   0.08487   0.09862
 Alpha virt. eigenvalues --    0.11244   0.11608   0.13191   0.14674   0.15908

 Mulliken charges:
               1
     1  O   -0.399932
     2  C   -0.128926
     3  C   -0.243152
     4  H    0.141850
     5  H    0.149500
     6  N   -0.414747
     7  H    0.145683
     8  H    0.143512
     9  H    0.270506
    10  H    0.276833
    11  C    0.324489
    12  O   -0.629714
    13  O   -0.635903
 Sum of Mulliken charges =  -1.00000

 Dipole moment (field-independent basis, Debye):
    X=            -24.6167    Y=            -12.9569    Z=              4.7700  Tot=             28.2243
 Quadrupole moment (field-independent basis, Debye-Ang):
   XX=           -182.3993   YY=            -85.5979   ZZ=            -53.2940
   XY=            -76.5645   XZ=             29.3847   YZ=             17.7746

  Exact polarizability:      82.336      12.108      81.455       5.253      -5.770      74.554
 Approx polarizability:      85.578      10.068      81.914       9.171      -4.532      79.915

 Summary of Natural Population Analysis:

                                       Natural Population
                Natural  -----------------------------------------------
    Atom  No    Charge         Core      Valence    Rydberg      Total
 -----------------------------------------------------------------------
      O    1   -0.77055      1.99980     6.75677    0.01398     8.77055
      C    2   -0.03382      1.99922     4.01069    0.02391     6.03382
      C    3   -0.21177      1.99929     4.18916    0.02333     6.21177
      H    4    0.16991      0.00000     0.82744    0.00265     0.83009
      H    5    0.16613      0.00000     0.83113    0.00274     0.83387
      N    6   -0.72165      1.99935     5.69931    0.02298     7.72165
      H    7    0.19097      0.00000     0.80583    0.00320     0.80903
      H    8    0.19056      0.00000     0.80728    0.00216     0.80944
      H    9    0.46978      0.00000     0.52568    0.00455     0.53022
      H   10    0.38808      0.00000     0.60969    0.00223     0.61192
      C   11    0.88395      1.99959     3.05467    0.06179     5.11605
      O   12   -0.85508      1.99977     6.84150    0.01382     8.85508
      O   13   -0.86650      1.99978     6.85292    0.01381     8.86650
 =======================================================================
   * Total *   -1.00000     13.99681    41.81206    0.19114    56.00000

                      1                      2                      3
                      A                      A                      A
 Frequencies --     55.5859                66.9943               113.5583
 Red. masses --      5.1842                 9.3101                 2.2150
 Frc consts  --      0.0094                 0.0246                 0.0168
 IR Inten    --     19.3441                 2.8089                13.1415
 Raman Activ --      0.5319                 2.2922                 0.6618

                      4                      5                      6
                      A                      A                      A
 Frequencies --    266.1394               293.0184               311.4774
 Red. masses --      2.1042                 1.6412                 2.6712
 Frc consts  --      0.0878                 0.0830                 0.1527
 IR Inten    --     49.6826                84.2756               129.9716
 Raman Activ --      1.1647                 0.3939                 0.3525

                      7                      8                      9
                      A                      A                      A
 Frequencies --    391.4808               405.9368               622.9889
 Red. masses --      6.5828                 1.2193                 6.1878
 Frc consts  --      0.5944                 0.1184                 1.4150
 IR Inten    --      9.5660               118.9910                25.1114
 Raman Activ --      6.6780                 4.0341                 2.1230

                     10                     11                     12
                      A                      A                      A
 Frequencies --    681.8353               788.7448               811.3387
 Red. masses --      3.0904                 1.5465                 5.9894
 Frc consts  --      0.8465                 0.5669                 2.3230
 IR Inten    --      5.5359                32.5651                29.4758
 Raman Activ --      1.1263                 1.6023                 0.6099

                     13                     14                     15
                      A                      A                      A
 Frequencies --    937.3032              1008.4233              1049.6251
 Red. masses --      3.7181                 4.6655                 3.5502
 Frc consts  --      1.9246                 2.7953                 2.3045
 IR Inten    --     38.4931               177.6998                51.9158
 Raman Activ --     17.8664                13.1948                 9.8600

                     16                     17                     18
                      A                      A                      A
 Frequencies --   1089.1376              1152.9782              1210.2687
 Red. masses --      1.5877                 2.3822                 1.5022
 Frc consts  --      1.1097                 1.8658                 1.2964
 IR Inten    --     40.8004                37.0117                29.4582
 Raman Activ --      4.5697                 5.4711                 2.0243

                     19                     20                     21
                      A                      A                      A
 Frequencies --   1302.0449              1324.5586              1341.9019
 Red. masses --      3.2805                 1.4036                 1.1371
 Frc consts  --      3.2767                 1.4509                 1.2064
 IR Inten    --    592.2821                82.3417                36.7087
 Raman Activ --     21.8375                 6.2672                21.0890

                     22                     23                     24
                      A                      A                      A
 Frequencies --   1385.9904              1410.7594              1444.0709
 Red. masses --      1.2786                 1.3885                 1.5718
 Frc consts  --      1.4471                 1.6282                 1.9312
 IR Inten    --     17.7275                20.5608               219.3968
 Raman Activ --      2.2386                 7.4813                17.4683

                     25                     26                     27
                      A                      A                      A
 Frequencies --   1469.6519              1502.6872              1592.5528
 Red. masses --      1.1695                 1.0872                 5.5910
 Frc consts  --      1.4882                 1.4464                 8.3547
 IR Inten    --    104.6913                 6.6794              1094.6223
 Raman Activ --     12.6547                 6.2986                 4.7989

                     28                     29                     30
                      A                      A                      A
 Frequencies --   3020.2358              3030.3474              3064.9064
 Red. masses --      1.0584                 1.0627                 1.1004
 Frc consts  --      5.6884                 5.7495                 6.0901
 IR Inten    --     46.9809                93.7980                16.5433
 Raman Activ --    397.7422               123.0410               226.8489

                     31                     32                     33
                      A                      A                      A
 Frequencies --   3093.8977              3637.2544              3816.7494
 Red. masses --      1.1071                 1.0773                 1.0665
 Frc consts  --      6.2440                 8.3973                 9.1537
 IR Inten    --     84.7447                20.3814                46.9548
 Raman Activ --     59.8855               185.3154               126.7685

 - Thermochemistry -
 -------------------
 Temperature   298.150 Kelvin.  Pressure   1.00000 Atm.
 Thermochemistry will use frequencies scaled by 0.9670.

 Molecular mass:   104.03477 amu.
 Principal axes and moments of inertia in atomic units:
                           1         2         3
     Eigenvalues --   239.653771431.676571563.37741
           X            0.70467   0.61446  -0.35480
           Y            0.65862  -0.38044   0.64922
           Z           -0.26394   0.69116   0.67278
 This molecule is an asymmetric top.
 Rotational symmetry number  1.
 Rotational temperatures (Kelvin)      0.36141     0.06050     0.05540
 Rotational constants (GHZ):           7.53062     1.26058     1.15439
 Zero-point vibrational energy     252726.2 (Joules/Mol)
                                   60.40302 (Kcal/Mol)
 Warning -- explicit consideration of   9 degrees of freedom as
           vibrations may cause significant error
 Vibrational temperatures:     77.34    93.21   157.99   370.28   407.68
          (Kelvin)            433.36   544.67   564.78   866.76   948.64
                             1097.38  1128.81  1304.07  1403.02  1460.34
                             1515.31  1604.14  1683.84  1811.53  1842.85
                             1866.98  1928.32  1962.79  2009.13  2044.72
                             2090.68  2215.71  4202.05  4216.11  4264.20
                             4304.53  5060.50  5310.23

 Zero-point correction=                           0.096258 (Hartree/Particle)
 Thermal correction to Energy=                    0.104163
 Thermal correction to Enthalpy=                  0.105107
 Thermal correction to Gibbs Free Energy=         0.063074
 Sum of electronic and zero-point Energies=           -398.572262
 Sum of electronic and thermal Energies=              -398.564358
 Sum of electronic and thermal Enthalpies=            -398.563413
 Sum of electronic and thermal Free Energies=         -398.605447

                     E (Thermal)             CV                S
                      KCal/Mol        Cal/Mol-Kelvin    Cal/Mol-Kelvin
 Total                   65.363             26.463             88.466
 Electronic               0.000              0.000              0.000
 Translational            0.889              2.981             39.836
 Rotational               0.889              2.981             27.775
 Vibrational             63.586             20.501             20.856
 Vibration     1          0.596              1.976              4.674
 Vibration     2          0.597              1.971              4.306
 Vibration     3          0.606              1.941              3.272
 Vibration     4          0.667              1.750              1.680
 Vibration     5          0.682              1.705              1.513
 Vibration     6          0.693              1.671              1.410
 Vibration     7          0.749              1.516              1.045
 Vibration     8          0.760              1.486              0.990
 Vibration     9          0.961              1.027              0.445

 Normal termination of Gaussian 16 at Fri Jun  2 12:24:03 2023.
