 Gaussian 16, Revision C.02,
 Gaussian 16:  ES64L-G16RevC.02  7-Dec-2021

 ----------------------------------------------------------------------
 #p freq=raman scale=0.967 guess=read geom=allcheck b3lyp/6-311+G(d,p)
 int=grid=ultrafine EmpiricalDispersion=GD3BJ SCRF=(Solvent=ethanol) sc
 f=(xqc,intrep,maxconventionalcycle=350) nosymm
 ----------------------------------------------------------------------

 Structure from the checkpoint file:  "/scratch1/svicchi/G09-1734011.pbs02/02-freq/PyrEt-isolated-freq.chk"
 --------------
 PyrEt-isolated
 --------------
 Charge = -1 Multiplicity = 1

                          Input orientation:
 ---------------------------------------------------------------------
 Center     Atomic      Atomic             Coordinates (Angstroms)
 Number     Number       Type             X           Y           Z
 ---------------------------------------------------------------------
      1          6           0       -0.450095    0.502225   -0.093682
      2          6           0       -1.108405   -0.672838   -0.475222
      3          6           0       -0.103914   -1.680802   -0.489441
      4          1           0       -2.160699   -0.787789   -0.705167
      5          6           0        1.091186   -1.047809   -0.115972
      6          1           0       -0.227910   -2.728851   -0.735692
      7          7           0        0.883976    0.282043    0.126650
      8          1           0       -0.878513    1.490123    0.039222
      9          6           0        2.458151   -1.665355   -0.004913
     10          1           0        2.354473   -2.756342    0.006975
     11          1           0        2.915876   -1.389090    0.954145
     12          6           0        3.420638   -1.267387   -1.136849
     13          1           0        3.018497   -1.567493   -2.109604
     14          1           0        4.402214   -1.738369   -1.014469
     15          1           0        3.565086   -0.183957   -1.156320
 ---------------------------------------------------------------------

 SCF Done:  E(RB3LYP) =  -288.408661937     A.U. after    1 cycles

 Alpha  occ. eigenvalues --  -14.24189 -10.14793 -10.14427 -10.13641 -10.13292
 Alpha  occ. eigenvalues --  -10.11429 -10.11211  -0.88682  -0.75178  -0.69725
 Alpha  occ. eigenvalues --   -0.65906  -0.59322  -0.51436  -0.47702  -0.45936
 Alpha  occ. eigenvalues --   -0.42406  -0.39819  -0.36534  -0.35613  -0.34045
 Alpha  occ. eigenvalues --   -0.32635  -0.31970  -0.31474  -0.22729  -0.19059
 Alpha  occ. eigenvalues --   -0.16387
 Alpha virt. eigenvalues --    0.01248   0.02652   0.03452   0.03988   0.05136
 Alpha virt. eigenvalues --    0.05679   0.06451   0.06747   0.07608   0.07631
 Alpha virt. eigenvalues --    0.08782   0.08849   0.09240   0.10283   0.11216

 Mulliken charges:
               1
     1  C   -0.187917
     2  C   -0.310828
     3  C   -0.309231
     4  H    0.090888
     5  C    0.084310
     6  H    0.084636
     7  N   -0.381494
     8  H    0.083409
     9  C   -0.276204
    10  H    0.116834
    11  H    0.126270
    12  C   -0.506333
    13  H    0.125952
    14  H    0.123749
    15  H    0.135961
 Sum of Mulliken charges =  -1.00000

 Dipole moment (field-independent basis, Debye):
    X=             -2.1001    Y=              0.6128    Z=              0.3491  Tot=              2.2154
 Quadrupole moment (field-independent basis, Debye-Ang):
   XX=            -53.2358   YY=            -50.4416   ZZ=            -52.0237
   XY=             -2.4066   XZ=              0.2000   YZ=             -0.3913

  Exact polarizability:     140.888      -3.200     126.438       3.859       6.853      99.205
 Approx polarizability:     145.573      -0.771     139.256       7.529       8.844     103.657

                      1                      2                      3
                      A                      A                      A
 Frequencies --     57.4354               138.6349               218.3273
 Red. masses --      2.6276                 3.3282                 1.1282
 Frc consts  --      0.0051                 0.0377                 0.0317
 IR Inten    --      2.7270                 5.4794                 1.8155
 Raman Activ --      3.5971                 6.7446                 0.3127

                      4                      5                      6
                      A                      A                      A
 Frequencies --    350.2062               387.9359               629.8914
 Red. masses --      2.1066                 3.3989                 3.5020
 Frc consts  --      0.1522                 0.3014                 0.8186
 IR Inten    --     10.5753                11.7194                12.9653
 Raman Activ --      1.7014                 3.7020                 2.1042

                      7                      8                      9
                      A                      A                      A
 Frequencies --    643.3548               684.9830               709.3900
 Red. masses --      3.5235                 1.2185                 1.7504
 Frc consts  --      0.8593                 0.3368                 0.5190
 IR Inten    --     15.9967               199.0202                 0.1060
 Raman Activ --      3.2120                51.4051                39.5806

                     10                     11                     12
                      A                      A                      A
 Frequencies --    732.3640               779.2484               800.3914
 Red. masses --      2.2015                 1.2182                 1.2760
 Frc consts  --      0.6957                 0.4358                 0.4816
 IR Inten    --      1.7800                 0.0660                13.8338
 Raman Activ --     32.1976                 2.4357                 7.2334

                     13                     14                     15
                      A                      A                      A
 Frequencies --    905.8270               932.0882               984.3407
 Red. masses --      5.3946                 2.7773                 2.1720
 Frc consts  --      2.6080                 1.4216                 1.2399
 IR Inten    --      0.5663                13.1541                 2.5922
 Raman Activ --      4.7538                15.7717                12.1455

                     16                     17                     18
                      A                      A                      A
 Frequencies --   1021.1505              1042.7867              1072.2148
 Red. masses --      1.3987                 1.4689                 1.8595
 Frc consts  --      0.8593                 0.9411                 1.2595
 IR Inten    --     59.6473                20.3270                 2.0095
 Raman Activ --      4.2686                 0.7822                10.5659

                     19                     20                     21
                      A                      A                      A
 Frequencies --   1093.1197              1189.4538              1244.4170
 Red. masses --      1.9426                 2.0428                 2.3438
 Frc consts  --      1.3676                 1.7028                 2.1385
 IR Inten    --     17.8472                21.4494                 1.6388
 Raman Activ --     56.2275                18.4100                83.7592

                     22                     23                     24
                      A                      A                      A
 Frequencies --   1270.9533              1322.2198              1343.6684
 Red. masses --      1.8204                 2.0689                 1.5768
 Frc consts  --      1.7325                 2.1311                 1.6772
 IR Inten    --      5.1161                 2.6229                22.6635
 Raman Activ --     17.9787                87.5100                20.0631

                     25                     26                     27
                      A                      A                      A
 Frequencies --   1383.9229              1415.5895              1442.8378
 Red. masses --      1.2596                 3.7773                 2.6447
 Frc consts  --      1.4214                 4.4597                 3.2439
 IR Inten    --      3.6761                 7.8118                61.9492
 Raman Activ --     29.6351               178.5563               108.1579

                     28                     29                     30
                      A                      A                      A
 Frequencies --   1469.0594              1478.8975              1489.5880
 Red. masses --      1.0839                 1.0490                 1.3907
 Frc consts  --      1.3782                 1.3517                 1.8181
 IR Inten    --      1.4582                 8.7345                 4.9346
 Raman Activ --     42.6385                15.6640                19.3990

                     31                     32                     33
                      A                      A                      A
 Frequencies --   1508.1236              2985.9268              3006.3625
 Red. masses --      2.3660                 1.0652                 1.0367
 Frc consts  --      3.1706                 5.5955                 5.5207
 IR Inten    --      1.5480               108.2133                90.5300
 Raman Activ --     70.4355               418.5066               530.2444

                     34                     35                     36
                      A                      A                      A
 Frequencies --   3028.3796              3063.7376              3083.0862
 Red. masses --      1.0939                 1.1007                 1.1014
 Frc consts  --      5.9110                 6.0873                 6.1681
 IR Inten    --     49.1581               108.7188                77.8715
 Raman Activ --    258.7141               292.7893                74.3203

                     37                     38                     39
                      A                      A                      A
 Frequencies --   3148.8885              3166.2739              3188.0385
 Red. masses --      1.0876                 1.0908                 1.1023
 Frc consts  --      6.3538                 6.4434                 6.6007
 IR Inten    --     33.6734                74.3890                55.3001
 Raman Activ --    240.0197               157.5927               392.7273

 - Thermochemistry -
 -------------------
 Temperature   298.150 Kelvin.  Pressure   1.00000 Atm.
 Thermochemistry will use frequencies scaled by 0.9670.

 Molecular mass:    94.06567 amu.
 Principal axes and moments of inertia in atomic units:
                           1         2         3
     Eigenvalues --   267.51055 956.148651106.13401
           X            0.94930   0.31143   0.04298
           Y           -0.29681   0.93289  -0.20399
           Z           -0.10362   0.18090   0.97803
 This molecule is an asymmetric top.
 Rotational symmetry number  1.
 Rotational temperatures (Kelvin)      0.32378     0.09059     0.07830
 Rotational constants (GHZ):           6.74643     1.88751     1.63158
 Zero-point vibrational energy     314722.4 (Joules/Mol)
                                   75.22047 (Kcal/Mol)
 Warning -- explicit consideration of   6 degrees of freedom as
           vibrations may cause significant error
 Vibrational temperatures:     79.91   192.88   303.76   487.24   539.73
          (Kelvin)            876.37   895.10   953.02   986.97  1018.94
                             1084.17  1113.58  1260.27  1296.81  1369.51
                             1420.72  1450.83  1491.77  1520.85  1654.88
                             1731.35  1768.27  1839.60  1869.44  1925.45
                             1969.51  2007.42  2043.90  2057.59  2072.46
                             2098.25  4154.31  4182.74  4213.38  4262.57
                             4289.49  4381.04  4405.23  4435.51

 Zero-point correction=                           0.119871 (Hartree/Particle)
 Thermal correction to Energy=                    0.126709
 Thermal correction to Enthalpy=                  0.127653
 Thermal correction to Gibbs Free Energy=         0.088768
 Sum of electronic and zero-point Energies=           -288.288790
 Sum of electronic and thermal Energies=              -288.281953
 Sum of electronic and thermal Enthalpies=            -288.281009
 Sum of electronic and thermal Free Energies=         -288.319894

                     E (Thermal)             CV                S
                      KCal/Mol        Cal/Mol-Kelvin    Cal/Mol-Kelvin
 Total                   79.511             25.345             81.841
 Electronic               0.000              0.000              0.000
 Translational            0.889              2.981             39.536
 Rotational               0.889              2.981             27.139
 Vibrational             77.734             19.384             15.166
 Vibration     1          0.596              1.975              4.610
 Vibration     2          0.613              1.919              2.887
 Vibration     3          0.643              1.824              2.034
 Vibration     4          0.719              1.598              1.219
 Vibration     5          0.746              1.523              1.059
 Vibration     6          0.968              1.013              0.434

 Normal termination of Gaussian 16 at Thu Dec 14 12:27:22 2023.
