 Gaussian 16, Revision C.01,
 Gaussian 16:  ES64L-G16RevC.01  3-Jul-2019

 ----------------------------------------------------------------------
 #p freq=raman scale=0.967 pop=(nbo,full,hirshfeld) guess=read geom=all
 check b3lyp/6-311+G(d,p) int=grid=ultrafine EmpiricalDispersion=GD3BJ
 SCRF=(Solvent=ethanol) scf=(xqc,intrep,maxconventionalcycle=350) nosym
 m
 ----------------------------------------------------------------------

 Structure from the checkpoint file:  "/scratch1/svicchi/G09-659922.pbs02/02-freq/glycerol-CO2_binding-site_index-3-freq.chk"
 -------------------------------------
 glycerol-CO2_binding-site_index-3.gjf
 -------------------------------------
 Charge = -1 Multiplicity = 1

                          Input orientation:
 ---------------------------------------------------------------------
 Center     Atomic      Atomic             Coordinates (Angstroms)
 Number     Number       Type             X           Y           Z
 ---------------------------------------------------------------------
      1          8           0        2.536369    0.336876   -0.144640
      2          6           0        1.293005    0.886440    0.285254
      3          6           0        0.112449    0.118247   -0.299508
      4          8           0        0.370921   -1.257391    0.052061
      5          6           0       -1.214752    0.633972    0.251721
      6          8           0       -2.336071    0.276373   -0.548399
      7          1           0        2.449272   -0.620915   -0.039000
      8          1           0        1.230359    0.879114    1.381523
      9          1           0        1.265324    1.922672   -0.054620
     10          1           0        0.118538    0.210734   -1.389804
     11          1           0       -1.330209    0.259136    1.277932
     12          1           0       -1.181848    1.727302    0.297466
     13          1           0       -2.104125   -0.591736   -0.949362
     14          6           0       -0.262210   -2.298758   -0.666113
     15          8           0       -1.195510   -1.971866   -1.439663
     16          8           0        0.200740   -3.418161   -0.414766
 ---------------------------------------------------------------------

 SCF Done:  E(RB3LYP) =  -533.127594514     A.U. after    1 cycles

 Alpha  occ. eigenvalues --  -19.13508 -19.12450 -19.10262 -19.07540 -19.06777
 Alpha  occ. eigenvalues --  -10.30061 -10.22283 -10.21777 -10.21140  -1.08514
 Alpha  occ. eigenvalues --   -1.02824  -1.00726  -0.98687  -0.95937  -0.76970
 Alpha  occ. eigenvalues --   -0.66671  -0.62426  -0.55348  -0.51432  -0.50803
 Alpha  occ. eigenvalues --   -0.47449  -0.44925  -0.43763  -0.43063  -0.42349
 Alpha  occ. eigenvalues --   -0.41858  -0.38712  -0.36852  -0.34974  -0.33654
 Alpha  occ. eigenvalues --   -0.28790  -0.28654  -0.28162  -0.26773  -0.26142
 Alpha  occ. eigenvalues --   -0.24135
 Alpha virt. eigenvalues --    0.01075   0.02520   0.02871   0.03323   0.05086
 Alpha virt. eigenvalues --    0.06172   0.06202   0.06783   0.07352   0.07830
 Alpha virt. eigenvalues --    0.09669   0.10084   0.11137   0.12035   0.12636

 Mulliken charges:
               1
     1  O   -0.376768
     2  C   -0.266887
     3  C   -0.167256
     4  O   -0.252909
     5  C   -0.177915
     6  O   -0.414440
     7  H    0.271099
     8  H    0.149316
     9  H    0.164102
    10  H    0.183905
    11  H    0.150131
    12  H    0.144283
    13  H    0.303407
    14  C    0.382321
    15  O   -0.545782
    16  O   -0.546606
 Sum of Mulliken charges =  -1.00000

 Dipole moment (field-independent basis, Debye):
    X=              2.2236    Y=             11.2191    Z=              4.4332  Tot=             12.2664
 Quadrupole moment (field-independent basis, Debye-Ang):
   XX=            -77.3586   YY=            -92.0823   ZZ=            -60.7980
   XY=             -2.7516   XZ=             -5.3874   YZ=             -7.0003

  Exact polarizability:      91.916      -4.027     104.435       7.493       3.531      82.144
 Approx polarizability:      95.221      -6.794     107.807       8.919      -0.026      89.694

 Summary of Natural Population Analysis:

                                       Natural Population
                Natural  -----------------------------------------------
    Atom  No    Charge         Core      Valence    Rydberg      Total
 -----------------------------------------------------------------------
      O    1   -0.76405      1.99980     6.75077    0.01347     8.76405
      C    2   -0.03831      1.99915     4.01465    0.02452     6.03831
      C    3    0.06227      1.99912     3.91416    0.02445     5.93773
      O    4   -0.66637      1.99973     6.64443    0.02222     8.66637
      C    5   -0.05030      1.99915     4.02641    0.02475     6.05030
      O    6   -0.80244      1.99980     6.78742    0.01522     8.80244
      H    7    0.47974      0.00000     0.51571    0.00455     0.52026
      H    8    0.16468      0.00000     0.83269    0.00263     0.83532
      H    9    0.18725      0.00000     0.81099    0.00177     0.81275
      H   10    0.19560      0.00000     0.80120    0.00320     0.80440
      H   11    0.16486      0.00000     0.83252    0.00263     0.83514
      H   12    0.17816      0.00000     0.81975    0.00209     0.82184
      H   13    0.49498      0.00000     0.49894    0.00608     0.50502
      C   14    1.00000      1.99963     2.93816    0.06221     5.00000
      O   15   -0.82508      1.99972     6.81223    0.01313     8.82508
      O   16   -0.78099      1.99974     6.76877    0.01248     8.78099
 =======================================================================
   * Total *   -1.00000     17.99583    53.76879    0.23538    72.00000

                      1                      2                      3
                      A                      A                      A
 Frequencies --     68.5002                81.2425               120.1995
 Red. masses --      8.1626                 5.3714                 6.5685
 Frc consts  --      0.0226                 0.0209                 0.0559
 IR Inten    --      2.6617                 3.0564                 8.5444
 Raman Activ --      1.3074                 1.9614                 0.9948

                      4                      5                      6
                      A                      A                      A
 Frequencies --    161.6919               207.0251               254.4780
 Red. masses --      2.7207                 3.6121                 8.0702
 Frc consts  --      0.0419                 0.0912                 0.3079
 IR Inten    --     25.0365                 3.4857                15.7568
 Raman Activ --      0.2497                 0.3499                 0.5097

                      7                      8                      9
                      A                      A                      A
 Frequencies --    306.0556               375.5223               440.1735
 Red. masses --      4.7357                 2.8782                 4.3594
 Frc consts  --      0.2614                 0.2391                 0.4976
 IR Inten    --     10.1865                23.3546                10.3818
 Raman Activ --      0.6208                 4.5287                 9.5831

                     10                     11                     12
                      A                      A                      A
 Frequencies --    444.7574               548.3738               572.9527
 Red. masses --      1.2871                 3.2652                 4.3273
 Frc consts  --      0.1500                 0.5785                 0.8370
 IR Inten    --    208.4564                 8.1725                 7.2161
 Raman Activ --      1.1886                 3.0777                 4.4422

                     13                     14                     15
                      A                      A                      A
 Frequencies --    704.3292               719.9747               812.4967
 Red. masses --      1.0688                 7.7669                11.0477
 Frc consts  --      0.3124                 2.3721                 4.2970
 IR Inten    --    145.7528                 5.2790                65.3853
 Raman Activ --      0.8046                 2.3956                 2.5058

                     16                     17                     18
                      A                      A                      A
 Frequencies --    840.0455               907.7615               951.0988
 Red. masses --      3.9862                 1.7163                 4.9078
 Frc consts  --      1.6574                 0.8333                 2.6157
 IR Inten    --    135.6931                50.2441               432.4314
 Raman Activ --     11.7442                 6.5308                 3.3880

                     19                     20                     21
                      A                      A                      A
 Frequencies --   1016.9037              1057.4491              1091.2795
 Red. masses --      8.2347                 3.7094                 4.5926
 Frc consts  --      5.0172                 2.4439                 3.2224
 IR Inten    --    197.6770                75.8095               165.4657
 Raman Activ --      1.6967                10.0341                15.2343

                     22                     23                     24
                      A                      A                      A
 Frequencies --   1104.9936              1114.8525              1229.1686
 Red. masses --      2.3906                 2.5063                 1.2445
 Frc consts  --      1.7198                 1.8353                 1.1078
 IR Inten    --      2.3174                64.6274                29.3758
 Raman Activ --      4.7937                 6.3688                 9.6225

                     25                     26                     27
                      A                      A                      A
 Frequencies --   1264.5454              1278.7824              1280.3205
 Red. masses --      1.1383                 2.2224                 1.6522
 Frc consts  --      1.0724                 2.1412                 1.5957
 IR Inten    --     86.0672               252.5457               167.4831
 Raman Activ --      9.9540                13.7187                 9.3688

                     28                     29                     30
                      A                      A                      A
 Frequencies --   1361.6766              1390.9867              1395.3578
 Red. masses --      1.2584                 1.3673                 1.2661
 Frc consts  --      1.3747                 1.5587                 1.4524
 IR Inten    --     22.5544                37.9066                29.4787
 Raman Activ --      8.7083                 7.8040                10.0492

                     31                     32                     33
                      A                      A                      A
 Frequencies --   1433.3833              1492.0705              1497.9986
 Red. masses --      1.3460                 1.0815                 1.0809
 Frc consts  --      1.6293                 1.4186                 1.4291
 IR Inten    --     52.5177                 5.3805                30.1170
 Raman Activ --      2.2993                 3.8601                18.1842

                     34                     35                     36
                      A                      A                      A
 Frequencies --   1502.4166              1680.5286              2985.6018
 Red. masses --      1.2195                 9.6622                 1.0659
 Frc consts  --      1.6219                16.0775                 5.5978
 IR Inten    --    196.1064              1215.8231                53.3847
 Raman Activ --      8.7508                 7.6810               147.2080

                     37                     38                     39
                      A                      A                      A
 Frequencies --   2996.9905              3044.0420              3051.9078
 Red. masses --      1.0699                 1.0913                 1.0882
 Frc consts  --      5.6617                 5.9581                 5.9717
 IR Inten    --    117.3818                54.1006                62.9510
 Raman Activ --    424.1153               186.1296               115.7465

                     40                     41                     42
                      A                      A                      A
 Frequencies --   3097.2617              3390.7079              3756.1990
 Red. masses --      1.0946                 1.0700                 1.0654
 Frc consts  --      6.1868                 7.2479                 8.8565
 IR Inten    --     56.4983               972.3367               105.7628
 Raman Activ --    229.9051               166.9410                99.7382

 - Thermochemistry -
 -------------------
 Temperature   298.150 Kelvin.  Pressure   1.00000 Atm.
 Thermochemistry will use frequencies scaled by 0.9670.

 Molecular mass:   135.02935 amu.
 Principal axes and moments of inertia in atomic units:
                           1         2         3
     Eigenvalues --   973.053771257.806252060.03504
           X            0.58425   0.79865  -0.14425
           Y            0.77610  -0.60179  -0.18846
           Z            0.23733   0.00185   0.97143
 This molecule is an asymmetric top.
 Rotational symmetry number  1.
 Warning -- assumption of classical behavior for rotation
           may cause significant error
 Rotational temperatures (Kelvin)      0.08901     0.06886     0.04204
 Rotational constants (GHZ):           1.85472     1.43483     0.87607
 Zero-point vibrational energy     306734.7 (Joules/Mol)
                                   73.31136 (Kcal/Mol)
 Warning -- explicit consideration of  12 degrees of freedom as
           vibrations may cause significant error
 Vibrational temperatures:     95.30   113.03   167.23   224.96   288.03
          (Kelvin)            354.05   425.81   522.46   612.41   618.79
                              762.95   797.15   979.93  1001.70  1130.42
                             1168.75  1262.97  1323.26  1414.82  1471.23
                             1518.29  1537.37  1551.09  1710.14  1759.36
                             1779.17  1781.31  1894.50  1935.28  1941.36
                             1994.26  2075.91  2084.16  2090.31  2338.11
                             4153.86  4169.70  4235.17  4246.11  4309.21
                             4717.48  5225.99

 Zero-point correction=                           0.116829 (Hartree/Particle)
 Thermal correction to Energy=                    0.126136
 Thermal correction to Enthalpy=                  0.127080
 Thermal correction to Gibbs Free Energy=         0.081851
 Sum of electronic and zero-point Energies=           -533.010765
 Sum of electronic and thermal Energies=              -533.001459
 Sum of electronic and thermal Enthalpies=            -533.000515
 Sum of electronic and thermal Free Energies=         -533.045743

                     E (Thermal)             CV                S
                      KCal/Mol        Cal/Mol-Kelvin    Cal/Mol-Kelvin
 Total                   79.151             32.977             95.191
 Electronic               0.000              0.000              0.000
 Translational            0.889              2.981             40.613
 Rotational               0.889              2.981             29.312
 Vibrational             77.374             27.015             25.266
 Vibration     1          0.598              1.970              4.262
 Vibration     2          0.600              1.964              3.926
 Vibration     3          0.608              1.936              3.162
 Vibration     4          0.620              1.896              2.593
 Vibration     5          0.638              1.840              2.131
 Vibration     6          0.661              1.769              1.758
 Vibration     7          0.690              1.681              1.440
 Vibration     8          0.737              1.548              1.109
 Vibration     9          0.787              1.414              0.873
 Vibration    10          0.791              1.405              0.858
 Vibration    11          0.885              1.183              0.587
 Vibration    12          0.909              1.131              0.536

 Normal termination of Gaussian 16 at Fri Jun  2 12:13:46 2023.
