 Gaussian 16, Revision C.01,
 Gaussian 16:  ES64L-G16RevC.01  3-Jul-2019

 ----------------------------------------------------------------------
 #p freq=raman scale=0.967 pop=(nbo,full,hirshfeld) guess=read geom=all
 check b3lyp/6-311+G(d,p) int=grid=ultrafine EmpiricalDispersion=GD3BJ
 SCRF=(Solvent=ethanol) scf=(xqc,intrep,maxconventionalcycle=350) nosym
 m
 ----------------------------------------------------------------------

 Structure from the checkpoint file:  "/scratch1/svicchi/G09-659868.pbs02/02-freq/PG-isolated-freq.chk"
 ---------------
 PG-isolated.gjf
 ---------------
 Charge =  0 Multiplicity = 1

                          Input orientation:
 ---------------------------------------------------------------------
 Center     Atomic      Atomic             Coordinates (Angstroms)
 Number     Number       Type             X           Y           Z
 ---------------------------------------------------------------------
      1          8           0       -4.313003    1.599747    0.024014
      2          6           0       -3.072942    2.299472    0.122387
      3          1           0       -4.206377    0.787591    0.536098
      4          6           0       -1.888199    1.392580   -0.171198
      5          1           0       -2.954563    2.731188    1.125215
      6          1           0       -3.107982    3.114260   -0.602213
      7          6           0       -0.558398    2.126906   -0.073796
      8          1           0       -0.509019    2.930557   -0.813781
      9          1           0        0.272961    1.443662   -0.263452
     10          1           0       -0.430018    2.559301    0.921963
     11          8           0       -1.981700    0.326633    0.796305
     12          1           0       -2.013685    0.970097   -1.175429
     13          1           0       -1.408366   -0.396594    0.521257
 ---------------------------------------------------------------------

 SCF Done:  E(RB3LYP) =  -269.687774210     A.U. after    1 cycles

 Alpha  occ. eigenvalues --  -19.13540 -19.12844 -10.22910 -10.21877 -10.16515
 Alpha  occ. eigenvalues --   -1.04401  -1.01913  -0.77867  -0.68711  -0.60871
 Alpha  occ. eigenvalues --   -0.54028  -0.50222  -0.45933  -0.44000  -0.41654
 Alpha  occ. eigenvalues --   -0.40260  -0.38863  -0.35590  -0.33935  -0.29474
 Alpha  occ. eigenvalues --   -0.28568
 Alpha virt. eigenvalues --    0.00093   0.01923   0.02732   0.03497   0.05447
 Alpha virt. eigenvalues --    0.06343   0.07126   0.07728   0.08418   0.10785
 Alpha virt. eigenvalues --    0.11410   0.12278   0.15473   0.15882   0.16578

 Mulliken charges:
               1
     1  O   -0.388636
     2  C   -0.155300
     3  H    0.272821
     4  C   -0.089714
     5  H    0.147279
     6  H    0.159267
     7  C   -0.456872
     8  H    0.148611
     9  H    0.148937
    10  H    0.152411
    11  O   -0.380722
    12  H    0.158657
    13  H    0.283262
 Sum of Mulliken charges =   0.00000

 Dipole moment (field-independent basis, Debye):
    X=              3.3279    Y=             -0.5664    Z=             -0.8171  Tot=              3.4733
 Quadrupole moment (field-independent basis, Debye-Ang):
   XX=            -52.1465   YY=            -29.3955   ZZ=            -33.5604
   XY=              6.0592   XZ=             -0.2613   YZ=             -0.7998

  Exact polarizability:      61.252       1.245      59.439      -0.148      -1.034      55.348
 Approx polarizability:      61.138       0.712      63.281      -0.023      -1.502      60.399

 Summary of Natural Population Analysis:

                                       Natural Population
                Natural  -----------------------------------------------
    Atom  No    Charge         Core      Valence    Rydberg      Total
 -----------------------------------------------------------------------
      O    1   -0.76526      1.99980     6.75150    0.01396     8.76526
      C    2   -0.04389      1.99915     4.01915    0.02558     6.04389
      H    3    0.47809      0.00000     0.51724    0.00468     0.52191
      C    4    0.08744      1.99919     3.89081    0.02257     5.91256
      H    5    0.16483      0.00000     0.83250    0.00267     0.83517
      H    6    0.18767      0.00000     0.81071    0.00162     0.81233
      C    7   -0.60590      1.99932     4.59514    0.01144     6.60590
      H    8    0.21244      0.00000     0.78600    0.00155     0.78756
      H    9    0.20954      0.00000     0.78898    0.00148     0.79046
      H   10    0.20532      0.00000     0.79253    0.00215     0.79468
      O   11   -0.78543      1.99978     6.77148    0.01417     8.78543
      H   12    0.17430      0.00000     0.82278    0.00292     0.82570
      H   13    0.48087      0.00000     0.51518    0.00395     0.51913
 =======================================================================
   * Total *    0.00000      9.99725    31.89401    0.10874    42.00000

                      1                      2                      3
                      A                      A                      A
 Frequencies --    133.6852               223.6811               227.7809
 Red. masses --      2.8987                 1.2471                 1.0777
 Frc consts  --      0.0305                 0.0368                 0.0329
 IR Inten    --      9.6313               116.4262                 0.4934
 Raman Activ --      0.0996                 1.2501                 0.0242

                      4                      5                      6
                      A                      A                      A
 Frequencies --    252.5391               359.8475               408.4598
 Red. masses --      1.9118                 2.1148                 1.4282
 Frc consts  --      0.0718                 0.1613                 0.1404
 IR Inten    --     69.2397                38.9026               152.1429
 Raman Activ --      0.6648                 0.6805                 1.3310

                      7                      8                      9
                      A                      A                      A
 Frequencies --    472.9880               516.5794               833.5487
 Red. masses --      2.2298                 3.6071                 2.7193
 Frc consts  --      0.2939                 0.5671                 1.1132
 IR Inten    --     22.9118                16.8680                48.8966
 Raman Activ --      0.2888                 5.5576                10.3271

                     10                     11                     12
                      A                      A                      A
 Frequencies --    921.6386               927.3043              1046.3962
 Red. masses --      1.5429                 1.6598                 4.6417
 Frc consts  --      0.7721                 0.8409                 2.9945
 IR Inten    --     34.9623                10.3486               191.6211
 Raman Activ --      3.6892                 5.6726                 6.3305

                     13                     14                     15
                      A                      A                      A
 Frequencies --   1072.4379              1105.4221              1131.8828
 Red. masses --      1.9784                 1.8316                 2.0228
 Frc consts  --      1.3406                 1.3187                 1.5269
 IR Inten    --      1.2432               111.5252                13.2938
 Raman Activ --      8.1937                 2.0818                 7.9065

                     16                     17                     18
                      A                      A                      A
 Frequencies --   1193.9615              1280.0444              1343.6454
 Red. masses --      1.2043                 1.2356                 1.2967
 Frc consts  --      1.0115                 1.1928                 1.3793
 IR Inten    --     11.3638                62.8001                14.8983
 Raman Activ --      4.0855                 8.3153                 3.6153

                     19                     20                     21
                      A                      A                      A
 Frequencies --   1367.4383              1401.6685              1405.2502
 Red. masses --      1.2311                 1.2248                 1.2811
 Frc consts  --      1.3563                 1.4177                 1.4906
 IR Inten    --     23.3890                25.8044                11.7366
 Raman Activ --     11.4622                15.1075                 2.5211

                     22                     23                     24
                      A                      A                      A
 Frequencies --   1434.4436              1484.7571              1487.5573
 Red. masses --      1.3725                 1.0530                 1.1018
 Frc consts  --      1.6639                 1.3677                 1.4365
 IR Inten    --     29.6112                 8.2665                 3.4020
 Raman Activ --      4.0423                10.3145                 2.1686

                     25                     26                     27
                      A                      A                      A
 Frequencies --   1493.7826              2995.4347              3015.4390
 Red. masses --      1.0894                 1.0705                 1.0830
 Frc consts  --      1.4322                 5.6594                 5.8023
 IR Inten    --      7.8389                37.6861                90.3399
 Raman Activ --     16.9631               345.9407               117.6922

                     28                     29                     30
                      A                      A                      A
 Frequencies --   3028.0647              3094.0854              3097.8775
 Red. masses --      1.0350                 1.1002                 1.1008
 Frc consts  --      5.5912                 6.2054                 6.2244
 IR Inten    --     24.8831                11.5743                41.2134
 Raman Activ --    339.9195                63.8294               115.6008

                     31                     32                     33
                      A                      A                      A
 Frequencies --   3101.7868              3782.3801              3832.8601
 Red. masses --      1.0981                 1.0657                 1.0669
 Frc consts  --      6.2249                 8.9830                 9.2346
 IR Inten    --     72.4831                80.8450                73.2149
 Raman Activ --    214.0474                91.7303               153.9787

 - Thermochemistry -
 -------------------
 Temperature   298.150 Kelvin.  Pressure   1.00000 Atm.
 Thermochemistry will use frequencies scaled by 0.9670.

 Molecular mass:    76.05243 amu.
 Principal axes and moments of inertia in atomic units:
                           1         2         3
     Eigenvalues --   216.00710 496.33209 652.49890
           X            0.99969   0.02181   0.01242
           Y           -0.02482   0.93233   0.36075
           Z           -0.00371  -0.36094   0.93258
 This molecule is an asymmetric top.
 Rotational symmetry number  1.
 Rotational temperatures (Kelvin)      0.40098     0.17451     0.13274
 Rotational constants (GHZ):           8.35501     3.63616     2.76589
 Zero-point vibrational energy     286158.7 (Joules/Mol)
                                   68.39358 (Kcal/Mol)
 Warning -- explicit consideration of   8 degrees of freedom as
           vibrations may cause significant error
 Vibrational temperatures:    186.00   311.21   316.91   351.36   500.65
          (Kelvin)            568.29   658.07   718.72  1159.71  1282.27
                             1290.16  1455.85  1492.08  1537.97  1574.79
                             1661.16  1780.92  1869.41  1902.51  1950.14
                             1955.12  1995.74  2065.74  2069.63  2078.30
                             4167.54  4195.37  4212.94  4304.79  4310.07
                             4315.51  5262.42  5332.65

 Zero-point correction=                           0.108992 (Hartree/Particle)
 Thermal correction to Energy=                    0.115633
 Thermal correction to Enthalpy=                  0.116577
 Thermal correction to Gibbs Free Energy=         0.079538
 Sum of electronic and zero-point Energies=           -269.578782
 Sum of electronic and thermal Energies=              -269.572141
 Sum of electronic and thermal Enthalpies=            -269.571197
 Sum of electronic and thermal Free Energies=         -269.608236

                     E (Thermal)             CV                S
                      KCal/Mol        Cal/Mol-Kelvin    Cal/Mol-Kelvin
 Total                   72.561             23.231             77.956
 Electronic               0.000              0.000              0.000
 Translational            0.889              2.981             38.902
 Rotational               0.889              2.981             25.751
 Vibrational             70.783             17.269             13.303
 Vibration     1          0.612              1.924              2.957
 Vibration     2          0.645              1.816              1.990
 Vibration     3          0.647              1.810              1.957
 Vibration     4          0.660              1.772              1.772
 Vibration     5          0.726              1.579              1.175
 Vibration     6          0.762              1.481              0.981
 Vibration     7          0.816              1.345              0.774
 Vibration     8          0.855              1.251              0.659

 Optimization completed.
    -- Stationary point found.
 Normal termination of Gaussian 16 at Fri Jun  2 11:26:50 2023.
