 Gaussian 16, Revision C.01,
 Gaussian 16:  ES64L-G16RevC.01  3-Jul-2019

 ----------------------------------------------------------------------
 #p freq=raman scale=0.967 pop=(nbo,full,hirshfeld) guess=read geom=all
 check b3lyp/6-311+G(d,p) int=grid=ultrafine EmpiricalDispersion=GD3BJ
 SCRF=(Solvent=ethanol) scf=(xqc,intrep,maxconventionalcycle=350) nosym
 m
 ----------------------------------------------------------------------

 Structure from the checkpoint file:  "/scratch1/svicchi/G09-659775.pbs02/02-freq/124triz-H_dissociation-site_index-3-freq.chk"
 ---------------------------------------
 124triz-H_dissociation-site_index-3.gjf
 ---------------------------------------
 Charge =  0 Multiplicity = 1

                          Input orientation:
 ---------------------------------------------------------------------
 Center     Atomic      Atomic             Coordinates (Angstroms)
 Number     Number       Type             X           Y           Z
 ---------------------------------------------------------------------
      1          6           0       -1.648665    1.403565   -0.000000
      2          7           0       -1.737895    0.042421   -0.000000
      3          6           0       -0.469582   -0.341271    0.000000
      4          7           0        0.329090    0.739737    0.000000
      5          7           0       -0.412460    1.875251    0.000000
      6          1           0       -0.098683   -1.353844   -0.000000
      7          1           0       -2.507959    2.056051   -0.000000
      8          1           0        1.338100    0.783501   -0.000000
 ---------------------------------------------------------------------

 SCF Done:  E(RB3LYP) =  -242.341240676     A.U. after    1 cycles

 Alpha  occ. eigenvalues --  -14.41027 -14.35605 -14.32269 -10.25419 -10.23246
 Alpha  occ. eigenvalues --   -1.09496  -0.91107  -0.84672  -0.65587  -0.63509
 Alpha  occ. eigenvalues --   -0.58052  -0.48195  -0.47785  -0.44065  -0.35172
 Alpha  occ. eigenvalues --   -0.31768  -0.30234  -0.28891
 Alpha virt. eigenvalues --   -0.01594   0.00910   0.02051   0.03127   0.03847
 Alpha virt. eigenvalues --    0.05494   0.05595   0.05816   0.08552   0.09417
 Alpha virt. eigenvalues --    0.12147   0.13076   0.15223   0.15947   0.16565

 Mulliken charges:
               1
     1  C   -0.041706
     2  N   -0.296546
     3  C    0.022620
     4  N   -0.138159
     5  N   -0.224317
     6  H    0.170516
     7  H    0.161876
     8  H    0.345716
 Sum of Mulliken charges =  -0.00000

 Dipole moment (field-independent basis, Debye):
    X=              3.4532    Y=             -1.4177    Z=              0.0000  Tot=              3.7329
 Quadrupole moment (field-independent basis, Debye-Ang):
   XX=            -29.5440   YY=            -32.4918   ZZ=            -30.4420
   XY=             -3.1884   XZ=              0.0000   YZ=             -0.0000

  Exact polarizability:      61.234       0.103      61.801      -0.000      -0.000      33.849
 Approx polarizability:      77.395       1.450      75.173      -0.000      -0.000      38.772

 Summary of Natural Population Analysis:

                                       Natural Population
                Natural  -----------------------------------------------
    Atom  No    Charge         Core      Valence    Rydberg      Total
 -----------------------------------------------------------------------
      C    1    0.16246      1.99947     3.79744    0.04063     5.83754
      N    2   -0.55395      1.99948     5.53189    0.02258     7.55395
      C    3    0.21233      1.99942     3.75553    0.03272     5.78767
      N    4   -0.34892      1.99939     5.32736    0.02217     7.34892
      N    5   -0.33558      1.99949     5.30938    0.02671     7.33558
      H    6    0.22234      0.00000     0.77643    0.00123     0.77766
      H    7    0.20667      0.00000     0.79213    0.00120     0.79333
      H    8    0.43464      0.00000     0.56339    0.00197     0.56536
 =======================================================================
   * Total *    0.00000      9.99724    25.85355    0.14921    36.00000

                      1                      2                      3
                      A                      A                      A
 Frequencies --    591.8286               681.5670               695.2854
 Red. masses --      1.9228                 1.8138                 2.9726
 Frc consts  --      0.3968                 0.4964                 0.8467
 IR Inten    --    107.5960                 5.7420                78.9321
 Raman Activ --      0.3206                 0.1081                 0.4182

                      4                      5                      6
                      A                      A                      A
 Frequencies --    874.9304               900.8796               968.2008
 Red. masses --      1.4182                 1.3923                 6.2873
 Frc consts  --      0.6396                 0.6657                 3.4725
 IR Inten    --     23.3693                12.2498                 7.2393
 Raman Activ --      0.9859                 0.7968                 1.4962

                      7                      8                      9
                      A                      A                      A
 Frequencies --    993.7415              1077.5632              1149.7223
 Red. masses --      6.6629                 2.4293                 1.7030
 Frc consts  --      3.8767                 1.6619                 1.3263
 IR Inten    --     20.6050                77.2211                30.1672
 Raman Activ --      1.8475                 7.4497                 5.0275

                     10                     11                     12
                      A                      A                      A
 Frequencies --   1176.3264              1278.1843              1309.6246
 Red. masses --      2.8659                 1.7697                 3.7609
 Frc consts  --      2.3365                 1.7035                 3.8005
 IR Inten    --     23.2608                 0.0576                39.2995
 Raman Activ --     22.2710                44.6258                10.9542

                     13                     14                     15
                      A                      A                      A
 Frequencies --   1387.0300              1474.0311              1548.4183
 Red. masses --      3.2599                 2.5572                 2.8437
 Frc consts  --      3.6951                 3.2736                 4.0171
 IR Inten    --     19.4142                41.9082                42.3363
 Raman Activ --     65.8801                11.7194                 0.9717

                     16                     17                     18
                      A                      A                      A
 Frequencies --   3252.7176              3263.5801              3639.2098
 Red. masses --      1.0974                 1.1014                 1.0839
 Frc consts  --      6.8410                 6.9116                 8.4580
 IR Inten    --      2.0372                 2.6504               168.7922
 Raman Activ --    104.8086               192.5649               183.9193

 - Thermochemistry -
 -------------------
 Temperature   298.150 Kelvin.  Pressure   1.00000 Atm.
 Thermochemistry will use frequencies scaled by 0.9670.

 Molecular mass:    69.03270 amu.
 Principal axes and moments of inertia in atomic units:
                           1         2         3
     Eigenvalues --   177.20879 181.59233 358.80112
           X            0.64602   0.76332  -0.00000
           Y            0.76332  -0.64602   0.00000
           Z            0.00000   0.00000   1.00000
 This molecule is an asymmetric top.
 Rotational symmetry number  1.
 Rotational temperatures (Kelvin)      0.48877     0.47697     0.24140
 Rotational constants (GHZ):          10.18426     9.93842     5.02992
 Zero-point vibrational energy     151902.8 (Joules/Mol)
                                   36.30564 (Kcal/Mol)
 Warning -- explicit consideration of   1 degrees of freedom as
           vibrations may cause significant error
 Vibrational temperatures:    823.41   948.26   967.35  1217.29  1253.39
          (Kelvin)           1347.06  1382.59  1499.21  1599.61  1636.62
                             1778.33  1822.08  1929.77  2050.82  2154.31
                             4525.50  4540.61  5063.22

 Zero-point correction=                           0.057857 (Hartree/Particle)
 Thermal correction to Energy=                    0.061461
 Thermal correction to Enthalpy=                  0.062405
 Thermal correction to Gibbs Free Energy=         0.031691
 Sum of electronic and zero-point Energies=           -242.283384
 Sum of electronic and thermal Energies=              -242.279780
 Sum of electronic and thermal Enthalpies=            -242.278836
 Sum of electronic and thermal Free Energies=         -242.309549

                     E (Thermal)             CV                S
                      KCal/Mol        Cal/Mol-Kelvin    Cal/Mol-Kelvin
 Total                   38.567             12.341             64.643
 Electronic               0.000              0.000              0.000
 Translational            0.889              2.981             38.613
 Rotational               0.889              2.981             23.961
 Vibrational             36.790              6.379              2.069
 Vibration     1          0.928              1.091              0.500

 Optimization completed.
    -- Stationary point found.
 Normal termination of Gaussian 16 at Fri Jun  2 11:12:17 2023.
