 Gaussian 16, Revision C.02,
 Gaussian 16:  ES64L-G16RevC.02  7-Dec-2021

 ----------------------------------------------------------------------
 #p freq=raman scale=0.967 guess=read geom=allcheck b3lyp/6-311+G(d,p)
 int=grid=ultrafine EmpiricalDispersion=GD3BJ SCRF=(Solvent=ethanol) sc
 f=(xqc,intrep,maxconventionalcycle=350) nosymm
 ----------------------------------------------------------------------

 Structure from the checkpoint file:  "/scratch1/svicchi/G09-1734057.pbs02/02-freq/PyrMeOH-CO2_binding-site_index-5-freq.chk"
 --------------------------------
 PyrMeOH-CO2_binding-site_index-5
 --------------------------------
 Charge = -1 Multiplicity = 1

                          Input orientation:
 ---------------------------------------------------------------------
 Center     Atomic      Atomic             Coordinates (Angstroms)
 Number     Number       Type             X           Y           Z
 ---------------------------------------------------------------------
      1          6           0       -0.428526    0.875635    0.046235
      2          6           0       -1.236567   -0.192037   -0.256087
      3          6           0       -0.380286   -1.266495   -0.647233
      4          1           0       -2.315066   -0.203080   -0.209786
      5          6           0        0.923088   -0.825016   -0.573493
      6          7           0        0.890164    0.502362   -0.142442
      7          1           0       -0.658002    1.877295    0.364519
      8          6           0        2.168030   -1.615541   -0.819298
      9          1           0       -0.678728   -2.262648   -0.939951
     10          1           0        1.870155   -2.634897   -1.069897
     11          1           0        2.778417   -1.658343    0.091707
     12          8           0        2.966398   -1.130660   -1.904641
     13          1           0        3.223396   -0.237846   -1.592372
     14          6           0        2.012073    1.435515    0.046499
     15          8           0        1.722318    2.503124    0.606262
     16          8           0        3.122924    1.045094   -0.385035
 ---------------------------------------------------------------------

 SCF Done:  E(RB3LYP) =  -513.023030390     A.U. after    2 cycles

 Alpha  occ. eigenvalues --  -19.10186 -19.07554 -19.07063 -14.35105 -10.29376
 Alpha  occ. eigenvalues --  -10.21321 -10.19093 -10.18357 -10.15475 -10.15433
 Alpha  occ. eigenvalues --   -1.05644  -1.00503  -0.96098  -0.95717  -0.77491
 Alpha  occ. eigenvalues --   -0.74427  -0.65661  -0.60672  -0.56916  -0.52695
 Alpha  occ. eigenvalues --   -0.49701  -0.46598  -0.44702  -0.43605  -0.43417
 Alpha  occ. eigenvalues --   -0.42201  -0.40856  -0.38743  -0.37389  -0.37143
 Alpha  occ. eigenvalues --   -0.34012  -0.27988  -0.26957  -0.26646  -0.25150
 Alpha  occ. eigenvalues --   -0.24432  -0.21364
 Alpha virt. eigenvalues --   -0.00336   0.01316   0.02823   0.03067   0.03943
 Alpha virt. eigenvalues --    0.04943   0.05284   0.05892   0.06276   0.07116
 Alpha virt. eigenvalues --    0.07810   0.08468   0.08589   0.08932   0.10590

 Mulliken charges:
               1
     1  C    0.025450
     2  C   -0.410594
     3  C   -0.126270
     4  H    0.130712
     5  C    0.173346
     6  N   -0.025191
     7  H    0.149022
     8  C   -0.566833
     9  H    0.124955
    10  H    0.147915
    11  H    0.151775
    12  O   -0.407203
    13  H    0.306301
    14  C    0.428126
    15  O   -0.528087
    16  O   -0.573426
 Sum of Mulliken charges =  -1.00000

 Dipole moment (field-independent basis, Debye):
    X=            -11.4272    Y=             -5.9382    Z=              2.1408  Tot=             13.0548
 Quadrupole moment (field-independent basis, Debye-Ang):
   XX=            -94.4753   YY=            -77.5661   ZZ=            -71.7635
   XY=            -12.2777   XZ=              8.0116   YZ=             -7.0682

  Exact polarizability:     146.446       2.997     134.425      -7.509      19.109      92.004
 Approx polarizability:     160.836       1.573     150.141      -8.945      22.406     102.419

                      1                      2                      3
                      A                      A                      A
 Frequencies --     66.0064               124.4243               157.2582
 Red. masses --     10.3779                 4.7186                 5.3112
 Frc consts  --      0.0266                 0.0430                 0.0774
 IR Inten    --      0.9440                 7.3007                 2.2659
 Raman Activ --      1.7162                 3.6196                 3.4623

                      4                      5                      6
                      A                      A                      A
 Frequencies --    209.3557               254.5076               319.7074
 Red. masses --      3.8714                 7.5270                 3.2374
 Frc consts  --      0.1000                 0.2873                 0.1950
 IR Inten    --      2.3958                22.8506                 6.7062
 Raman Activ --      3.0049                 0.3720                 2.6343

                      7                      8                      9
                      A                      A                      A
 Frequencies --    381.6806               471.8325               544.6340
 Red. masses --      7.1598                 6.1238                 5.3579
 Frc consts  --      0.6145                 0.8032                 0.9364
 IR Inten    --      1.8659                 2.8946                 1.1122
 Raman Activ --      2.3391                12.1286                 2.2117

                     10                     11                     12
                      A                      A                      A
 Frequencies --    616.3761               635.5993               726.9717
 Red. masses --      3.4996                 3.7059                 1.3656
 Frc consts  --      0.7834                 0.8821                 0.4252
 IR Inten    --      7.6523                 1.1123               129.9098
 Raman Activ --      2.2603                 7.0932                12.0374

                     13                     14                     15
                      A                      A                      A
 Frequencies --    736.2838               752.7408               787.9783
 Red. masses --      1.5721                 1.6859                 4.1067
 Frc consts  --      0.5021                 0.5628                 1.5024
 IR Inten    --     89.7297               151.6370                89.4435
 Raman Activ --      3.3084                 1.6360                13.3963

                     16                     17                     18
                      A                      A                      A
 Frequencies --    806.2007               819.0339               880.2331
 Red. masses --      6.8368                 1.9957                 1.3230
 Frc consts  --      2.6181                 0.7888                 0.6039
 IR Inten    --    169.4747                23.1175                 1.6445
 Raman Activ --      9.6588                 8.5039                 3.4322

                     19                     20                     21
                      A                      A                      A
 Frequencies --    904.9836               963.8109              1009.0852
 Red. masses --      4.3445                 1.7354                 5.6971
 Frc consts  --      2.0964                 0.9498                 3.4179
 IR Inten    --     12.3949                74.7896               192.4457
 Raman Activ --     14.0323                 3.9985                33.2279

                     22                     23                     24
                      A                      A                      A
 Frequencies --   1025.4876              1065.9339              1162.7345
 Red. masses --      1.4145                 1.6024                 2.7216
 Frc consts  --      0.8764                 1.0727                 2.1679
 IR Inten    --      7.3997               111.8918                31.8168
 Raman Activ --      6.9529                16.5721                 2.9351

                     25                     26                     27
                      A                      A                      A
 Frequencies --   1195.5766              1247.7632              1264.7793
 Red. masses --      1.6963                 2.2783                 1.5633
 Frc consts  --      1.4286                 2.0899                 1.4734
 IR Inten    --    168.4871               402.9314               160.5800
 Raman Activ --      6.3976               111.8658                44.4924

                     28                     29                     30
                      A                      A                      A
 Frequencies --   1298.3304              1354.6840              1376.6202
 Red. masses --      7.0372                 5.9838                 1.2734
 Frc consts  --      6.9891                 6.4700                 1.4218
 IR Inten    --    540.5209                15.5371                71.0056
 Raman Activ --     12.3202                22.6076                22.1298

                     31                     32                     33
                      A                      A                      A
 Frequencies --   1433.7637              1451.8265              1480.9590
 Red. masses --      3.1632                 1.2320                 1.1379
 Frc consts  --      3.8312                 1.5300                 1.4705
 IR Inten    --      2.9904               235.6211                 6.0449
 Raman Activ --     40.1393                18.4866                27.0550

                     34                     35                     36
                      A                      A                      A
 Frequencies --   1499.8045              1580.4802              1684.3544
 Red. masses --      4.1033                 5.5906                10.0885
 Frc consts  --      5.4382                 8.2278                16.8633
 IR Inten    --     33.6565                46.2046              1013.3839
 Raman Activ --    244.0990                33.8870                11.3915

                     37                     38                     39
                      A                      A                      A
 Frequencies --   2994.9901              3089.5917              3215.8926
 Red. masses --      1.0696                 1.0928                 1.0920
 Frc consts  --      5.6526                 6.1460                 6.6539
 IR Inten    --     91.7375                58.3754                14.4926
 Raman Activ --    354.5362               190.2805               185.5445

                     40                     41                     42
                      A                      A                      A
 Frequencies --   3231.7224              3277.9427              3490.0246
 Red. masses --      1.0981                 1.0995                 1.0664
 Frc consts  --      6.7569                 6.9607                 7.6529
 IR Inten    --      9.9925                 3.2413               630.6721
 Raman Activ --    280.8604               179.4853               158.3838

 - Thermochemistry -
 -------------------
 Temperature   298.150 Kelvin.  Pressure   1.00000 Atm.
 Thermochemistry will use frequencies scaled by 0.9670.

 Molecular mass:   140.03477 amu.
 Principal axes and moments of inertia in atomic units:
                           1         2         3
     Eigenvalues --  1084.431771129.848722130.41014
           X            0.92717  -0.32806   0.18092
           Y            0.37397   0.83926  -0.39470
           Z           -0.02236   0.43361   0.90082
 This molecule is an asymmetric top.
 Rotational symmetry number  1.
 Warning -- assumption of classical behavior for rotation
           may cause significant error
 Rotational temperatures (Kelvin)      0.07987     0.07666     0.04066
 Rotational constants (GHZ):           1.66423     1.59733     0.84713
 Zero-point vibrational energy     298405.1 (Joules/Mol)
                                   71.32052 (Kcal/Mol)
 Warning -- explicit consideration of  11 degrees of freedom as
           vibrations may cause significant error
 Vibrational temperatures:     91.83   173.11   218.79   291.28   354.10
          (Kelvin)            444.81   531.03   656.46   757.75   857.56
                              884.31  1011.43  1024.39  1047.29  1096.31
                             1121.66  1139.52  1224.67  1259.10  1340.95
                             1403.94  1426.76  1483.03  1617.71  1663.40
                             1736.01  1759.68  1806.36  1884.77  1915.29
                             1994.79  2019.92  2060.45  2086.67  2198.92
                             2343.44  4166.92  4298.54  4474.26  4496.29
                             4560.59  4855.66

 Zero-point correction=                           0.113656 (Hartree/Particle)
 Thermal correction to Energy=                    0.122211
 Thermal correction to Enthalpy=                  0.123155
 Thermal correction to Gibbs Free Energy=         0.079753
 Sum of electronic and zero-point Energies=           -512.909374
 Sum of electronic and thermal Energies=              -512.900820
 Sum of electronic and thermal Enthalpies=            -512.899875
 Sum of electronic and thermal Free Energies=         -512.943277

                     E (Thermal)             CV                S
                      KCal/Mol        Cal/Mol-Kelvin    Cal/Mol-Kelvin
 Total                   76.688             32.162             91.347
 Electronic               0.000              0.000              0.000
 Translational            0.889              2.981             40.722
 Rotational               0.889              2.981             29.347
 Vibrational             74.911             26.200             21.278
 Vibration     1          0.597              1.972              4.335
 Vibration     2          0.609              1.932              3.095
 Vibration     3          0.619              1.900              2.646
 Vibration     4          0.639              1.836              2.111
 Vibration     5          0.661              1.769              1.758
 Vibration     6          0.699              1.656              1.367
 Vibration     7          0.741              1.536              1.084
 Vibration     8          0.814              1.347              0.777
 Vibration     9          0.882              1.191              0.595
 Vibration    10          0.954              1.040              0.457
 Vibration    11          0.974              1.001              0.425

 Normal termination of Gaussian 16 at Thu Dec 14 13:35:56 2023.
