 Gaussian 16, Revision C.02,
 Gaussian 16:  ES64L-G16RevC.02  7-Dec-2021

 ----------------------------------------------------------------------
 #p freq=raman scale=0.967 guess=read geom=allcheck b3lyp/6-311+G(d,p)
 int=grid=ultrafine EmpiricalDispersion=GD3BJ SCRF=(Solvent=ethanol) sc
 f=(xqc,intrep,maxconventionalcycle=350) nosymm
 ----------------------------------------------------------------------

 Structure from the checkpoint file:  "/scratch1/svicchi/G09-1734015.pbs02/02-freq/PyrCOOCH3-isolated-freq.chk"
 ------------------
 PyrCOOCH3-isolated
 ------------------
 Charge = -1 Multiplicity = 1

                          Input orientation:
 ---------------------------------------------------------------------
 Center     Atomic      Atomic             Coordinates (Angstroms)
 Number     Number       Type             X           Y           Z
 ---------------------------------------------------------------------
      1          6           0       -0.501595    0.728825   -0.064625
      2          6           0       -1.334405   -0.396772   -0.278438
      3          6           0       -0.468101   -1.464595   -0.525773
      4          1           0       -2.415746   -0.420243   -0.251639
      5          6           0        0.844550   -0.933593   -0.439196
      6          7           0        0.803239    0.418562   -0.154124
      7          1           0       -0.815369    1.744737    0.149084
      8          6           0        2.037745   -1.712133   -0.685837
      9          1           0       -0.728305   -2.491192   -0.738968
     10          8           0        2.018020   -2.854861   -1.147892
     11          8           0        3.290710   -1.217045   -0.437694
     12          6           0        3.547747   -0.066690    0.387016
     13          1           0        4.613239   -0.115401    0.612855
     14          1           0        2.966082   -0.110228    1.307310
     15          1           0        3.307109    0.854219   -0.138442
 ---------------------------------------------------------------------

 SCF Done:  E(RB3LYP) =  -437.718416833     A.U. after    1 cycles

 Alpha  occ. eigenvalues --  -19.14394 -19.08025 -14.26476 -10.27881 -10.20554
 Alpha  occ. eigenvalues --  -10.15893 -10.15576 -10.13761 -10.13373  -1.07445
 Alpha  occ. eigenvalues --   -0.98927  -0.91110  -0.72314  -0.71465  -0.69564
 Alpha  occ. eigenvalues --   -0.58675  -0.53787  -0.52205  -0.48528  -0.46130
 Alpha  occ. eigenvalues --   -0.45081  -0.42683  -0.39554  -0.38961  -0.36827
 Alpha  occ. eigenvalues --   -0.35889  -0.35456  -0.32776  -0.28264  -0.26315
 Alpha  occ. eigenvalues --   -0.24257  -0.21374  -0.19276
 Alpha virt. eigenvalues --   -0.00948   0.01215   0.02744   0.02890   0.04386
 Alpha virt. eigenvalues --    0.04877   0.05043   0.06037   0.06751   0.07170
 Alpha virt. eigenvalues --    0.07779   0.08864   0.08932   0.09539   0.10857

 Mulliken charges:
               1
     1  C   -0.138830
     2  C   -0.291891
     3  C   -0.233642
     4  H    0.108453
     5  C    0.212227
     6  N   -0.287659
     7  H    0.099180
     8  C   -0.042658
     9  H    0.111801
    10  O   -0.492877
    11  O   -0.269624
    12  C   -0.236174
    13  H    0.148324
    14  H    0.151172
    15  H    0.162199
 Sum of Mulliken charges =  -1.00000

 Dipole moment (field-independent basis, Debye):
    X=             -5.2621    Y=              6.8784    Z=              4.1104  Tot=              9.5863
 Quadrupole moment (field-independent basis, Debye-Ang):
   XX=            -67.7838   YY=            -78.1759   ZZ=            -61.7467
   XY=             15.8753   XZ=              8.7719   YZ=             -8.3383

  Exact polarizability:     162.055     -17.449     141.781      -2.988      17.289      87.454
 Approx polarizability:     176.617     -20.563     165.051      -5.574      21.642      96.060

                      1                      2                      3
                      A                      A                      A
 Frequencies --     41.7417               112.9488               159.0674
 Red. masses --      3.6424                 2.1138                 1.9923
 Frc consts  --      0.0037                 0.0159                 0.0297
 IR Inten    --     16.4895                 1.3715                 4.5254
 Raman Activ --      3.4277                 2.1776                 1.2482

                      4                      5                      6
                      A                      A                      A
 Frequencies --    186.1232               209.1905               292.2774
 Red. masses --      3.5892                 3.6320                 3.4727
 Frc consts  --      0.0733                 0.0936                 0.1748
 IR Inten    --      2.4988                15.1361                 2.8698
 Raman Activ --      5.1387                 0.6396                 3.3620

                      7                      8                      9
                      A                      A                      A
 Frequencies --    438.5682               544.6758               621.1574
 Red. masses --      7.7700                 6.3421                 3.2979
 Frc consts  --      0.8805                 1.1086                 0.7497
 IR Inten    --      8.4082                 1.9228                 4.5540
 Raman Activ --      8.7613                 3.0931                 0.8339

                     10                     11                     12
                      A                      A                      A
 Frequencies --    661.1708               673.4142               730.0695
 Red. masses --      7.7199                 5.4437                 1.3278
 Frc consts  --      1.9883                 1.4545                 0.4170
 IR Inten    --      0.6429                 6.0391               185.4769
 Raman Activ --     33.4782                 1.4951                31.9522

                     13                     14                     15
                      A                      A                      A
 Frequencies --    774.7607               814.8023               868.2917
 Red. masses --      4.8026                 1.3932                 1.3686
 Frc consts  --      1.6985                 0.5450                 0.6079
 IR Inten    --      5.5404                 7.0033                 6.0476
 Raman Activ --      3.5459                28.2266                 0.3703

                     16                     17                     18
                      A                      A                      A
 Frequencies --    908.3726               919.1225              1015.1969
 Red. masses --      5.5175                 4.9742                 2.3546
 Frc consts  --      2.6824                 2.4758                 1.4298
 IR Inten    --     25.0142               218.1898                16.4771
 Raman Activ --     14.3290                38.2821                 1.7233

                     19                     20                     21
                      A                      A                      A
 Frequencies --   1031.7389              1079.1221              1116.9228
 Red. masses --      1.2803                 3.6471                 3.8795
 Frc consts  --      0.8029                 2.5023                 2.8515
 IR Inten    --    158.6660                76.8100               452.1806
 Raman Activ --     27.0871                71.6099                49.3785

                     22                     23                     24
                      A                      A                      A
 Frequencies --   1165.1227              1201.8375              1203.4328
 Red. masses --      1.2631                 1.6976                 1.6494
 Frc consts  --      1.0102                 1.4447                 1.4074
 IR Inten    --      1.7702               114.9149               131.5105
 Raman Activ --      3.1282                31.6663                21.2077

                     25                     26                     27
                      A                      A                      A
 Frequencies --   1303.4784              1334.4110              1379.9589
 Red. masses --      7.2911                 5.0655                 3.2263
 Frc consts  --      7.2988                 5.3144                 3.6199
 IR Inten    --     43.3709               211.7533               277.5730
 Raman Activ --     61.1593                30.4090               419.8056

                     28                     29                     30
                      A                      A                      A
 Frequencies --   1444.8757              1467.9706              1476.4041
 Red. masses --      2.7623                 1.0485                 1.0680
 Frc consts  --      3.3976                 1.3313                 1.3716
 IR Inten    --     18.7675                14.4433                83.2771
 Raman Activ --     13.9807                20.4511                11.4256

                     31                     32                     33
                      A                      A                      A
 Frequencies --   1478.0612              1493.0240              1628.0972
 Red. masses --      1.5993                 2.4800                12.2164
 Frc consts  --      2.0586                 3.2571                19.0789
 IR Inten    --     13.3099               158.6172              1298.8123
 Raman Activ --     30.3253                 4.2512               445.9106

                     34                     35                     36
                      A                      A                      A
 Frequencies --   3050.0696              3127.4826              3146.7859
 Red. masses --      1.0292                 1.1069                 1.1057
 Frc consts  --      5.6414                 6.3791                 6.4506
 IR Inten    --     70.7839                46.3613                29.7392
 Raman Activ --    383.8898               149.5864                95.1300

                     37                     38                     39
                      A                      A                      A
 Frequencies --   3160.8066              3196.7479              3221.5013
 Red. masses --      1.0904                 1.0931                 1.1004
 Frc consts  --      6.4186                 6.5813                 6.7283
 IR Inten    --     42.1634                37.1778                21.5964
 Raman Activ --    241.5186               257.3760               287.3428

 - Thermochemistry -
 -------------------
 Temperature   298.150 Kelvin.  Pressure   1.00000 Atm.
 Thermochemistry will use frequencies scaled by 0.9670.

 Molecular mass:   124.03985 amu.
 Principal axes and moments of inertia in atomic units:
                           1         2         3
     Eigenvalues --   577.071841313.296761856.91170
           X            0.95587   0.28348  -0.07712
           Y           -0.29221   0.89035  -0.34911
           Z           -0.03030   0.35624   0.93390
 This molecule is an asymmetric top.
 Rotational symmetry number  1.
 Warning -- assumption of classical behavior for rotation
           may cause significant error
 Rotational temperatures (Kelvin)      0.15009     0.06595     0.04664
 Rotational constants (GHZ):           3.12741     1.37421     0.97190
 Zero-point vibrational energy     281555.5 (Joules/Mol)
                                   67.29338 (Kcal/Mol)
 Warning -- explicit consideration of   9 degrees of freedom as
           vibrations may cause significant error
 Vibrational temperatures:     58.08   157.15   221.31   258.95   291.05
          (Kelvin)            406.64   610.18   757.81   864.21   919.89
                              936.92  1015.74  1077.92  1133.63  1208.05
                             1263.82  1278.77  1412.44  1435.46  1501.38
                             1553.97  1621.03  1672.11  1674.33  1813.53
                             1856.56  1919.93  2010.25  2042.38  2054.12
                             2056.42  2077.24  2265.17  4243.55  4351.26
                             4378.11  4397.62  4447.63  4482.07

 Zero-point correction=                           0.107239 (Hartree/Particle)
 Thermal correction to Energy=                    0.115535
 Thermal correction to Enthalpy=                  0.116479
 Thermal correction to Gibbs Free Energy=         0.073342
 Sum of electronic and zero-point Energies=           -437.611178
 Sum of electronic and thermal Energies=              -437.602882
 Sum of electronic and thermal Enthalpies=            -437.601938
 Sum of electronic and thermal Free Energies=         -437.645075

                     E (Thermal)             CV                S
                      KCal/Mol        Cal/Mol-Kelvin    Cal/Mol-Kelvin
 Total                   72.499             29.693             90.790
 Electronic               0.000              0.000              0.000
 Translational            0.889              2.981             40.360
 Rotational               0.889              2.981             28.733
 Vibrational             70.722             23.731             21.697
 Vibration     1          0.594              1.981              5.241
 Vibration     2          0.606              1.942              3.283
 Vibration     3          0.619              1.898              2.624
 Vibration     4          0.629              1.867              2.329
 Vibration     5          0.639              1.837              2.112
 Vibration     6          0.682              1.706              1.518
 Vibration     7          0.786              1.418              0.878
 Vibration     8          0.882              1.191              0.595
 Vibration     9          0.959              1.030              0.449

 Normal termination of Gaussian 16 at Thu Dec 14 12:34:12 2023.
