 Gaussian 16, Revision C.01,
 Gaussian 16:  ES64L-G16RevC.01  3-Jul-2019

 ----------------------------------------------------------------------
 #p freq=raman scale=0.967 pop=(nbo,full,hirshfeld) guess=read geom=all
 check b3lyp/6-311+G(d,p) int=grid=ultrafine EmpiricalDispersion=GD3BJ
 SCRF=(Solvent=ethanol) scf=(xqc,intrep,maxconventionalcycle=350) nosym
 m
 ----------------------------------------------------------------------

 Structure from the checkpoint file:  "/scratch1/svicchi/G09-659735.pbs02/02-freq/3ethylthiazolium-H_dissociation-site_index-1-freq.chk"
 ------------------------------------------------
 3ethylthiazolium-H_dissociation-site_index-1.gjf
 ------------------------------------------------
 Charge =  0 Multiplicity = 1

                          Input orientation:
 ---------------------------------------------------------------------
 Center     Atomic      Atomic             Coordinates (Angstroms)
 Number     Number       Type             X           Y           Z
 ---------------------------------------------------------------------
      1          7           0       -0.028701    0.106899   -0.023209
      2          6           0        1.086344   -0.640834    0.048070
      3          6           0       -0.446596    0.573278   -1.275146
      4          6           0        0.375902    0.187844   -2.269593
      5         16           0        1.668261   -0.769228   -1.580185
      6          6           0       -0.838543    0.390513    1.178893
      7          6           0       -2.064321   -0.511696    1.263218
      8          1           0       -2.630816   -0.280477    2.168058
      9          1           0       -2.723661   -0.369336    0.403789
     10          1           0       -1.764551   -1.561372    1.300520
     11          1           0       -1.125225    1.443636    1.148080
     12          1           0       -0.181071    0.240341    2.032736
     13          1           0       -1.338106    1.177088   -1.351518
     14          1           0        0.297274    0.414065   -3.320642
 ---------------------------------------------------------------------

 SCF Done:  E(RB3LYP) =  -647.754754351     A.U. after    1 cycles

 Alpha  occ. eigenvalues --  -88.88111 -14.38947 -10.22308 -10.21727 -10.20970
 Alpha  occ. eigenvalues --  -10.20903 -10.17008  -7.96758  -5.93055  -5.92591
 Alpha  occ. eigenvalues --   -5.92420  -1.00525  -0.83930  -0.76054  -0.75603
 Alpha  occ. eigenvalues --   -0.65228  -0.61530  -0.55446  -0.52381  -0.47486
 Alpha  occ. eigenvalues --   -0.45491  -0.44076  -0.42385  -0.39262  -0.38200
 Alpha  occ. eigenvalues --   -0.36529  -0.35105  -0.29307  -0.26226  -0.24480
 Alpha virt. eigenvalues --   -0.02926  -0.00224   0.00571   0.01206   0.02367
 Alpha virt. eigenvalues --    0.03038   0.03198   0.04194   0.05206   0.05531
 Alpha virt. eigenvalues --    0.06436   0.07306   0.08280   0.08384   0.08697

 Mulliken charges:
               1
     1  N    0.207333
     2  C   -0.589394
     3  C   -0.253078
     4  C   -0.252019
     5  S    0.255062
     6  C   -0.147486
     7  C   -0.396196
     8  H    0.158768
     9  H    0.145610
    10  H    0.152213
    11  H    0.171421
    12  H    0.173645
    13  H    0.174583
    14  H    0.199539
 Sum of Mulliken charges =  -0.00000

 Dipole moment (field-independent basis, Debye):
    X=             -4.3568    Y=              2.8146    Z=             -1.3467  Tot=              5.3588
 Quadrupole moment (field-independent basis, Debye-Ang):
   XX=            -52.3259   YY=            -52.0810   ZZ=            -43.5775
   XY=              0.5436   XZ=             -2.6771   YZ=             -0.0583

  Exact polarizability:     114.864     -18.141      91.069     -11.308      -2.963     125.940
 Approx polarizability:     131.013     -24.863     105.726     -11.451      -2.503     148.325

 Summary of Natural Population Analysis:

                                       Natural Population
                Natural  -----------------------------------------------
    Atom  No    Charge         Core      Valence    Rydberg      Total
 -----------------------------------------------------------------------
      N    1   -0.44681      1.99927     5.42659    0.02094     7.44681
      C    2   -0.24959      1.99943     4.20663    0.04354     6.24959
      C    3   -0.03767      1.99903     4.01771    0.02094     6.03767
      C    4   -0.41310      1.99908     4.39397    0.02006     6.41310
      S    5    0.36596      9.99900     5.58494    0.05009    15.63404
      C    6   -0.16519      1.99928     4.14790    0.01801     6.16519
      C    7   -0.58788      1.99936     4.58083    0.00770     6.58788
      H    8    0.21495      0.00000     0.78380    0.00126     0.78505
      H    9    0.20425      0.00000     0.79425    0.00150     0.79575
      H   10    0.20779      0.00000     0.79053    0.00168     0.79221
      H   11    0.20491      0.00000     0.79346    0.00163     0.79509
      H   12    0.21823      0.00000     0.77996    0.00181     0.78177
      H   13    0.23436      0.00000     0.76401    0.00163     0.76564
      H   14    0.24980      0.00000     0.74868    0.00152     0.75020
 =======================================================================
   * Total *    0.00000     21.99444    37.81327    0.19230    60.00000

                      1                      2                      3
                      A                      A                      A
 Frequencies --     68.5203               140.3021               225.1053
 Red. masses --      2.7094                 3.7868                 1.1104
 Frc consts  --      0.0075                 0.0439                 0.0332
 IR Inten    --      3.7324                 4.8357                 1.2507
 Raman Activ --      3.1149                 4.9034                 0.0204

                      4                      5                      6
                      A                      A                      A
 Frequencies --    362.7256               383.1169               472.4090
 Red. masses --      2.9740                 3.0215                 5.5002
 Frc consts  --      0.2305                 0.2613                 0.7232
 IR Inten    --      7.4506                10.2410                11.7617
 Raman Activ --      2.0093                 3.7928                 1.3813

                      7                      8                      9
                      A                      A                      A
 Frequencies --    551.4251               627.4556               678.3015
 Red. masses --      5.0945                 3.4715                 6.2948
 Frc consts  --      0.9127                 0.8052                 1.7064
 IR Inten    --      5.3748                16.5761                 6.2087
 Raman Activ --     23.6265                 2.0243                 6.9720

                     10                     11                     12
                      A                      A                      A
 Frequencies --    730.2154               757.1390               804.2777
 Red. masses --      1.3094                 4.4170                 1.2592
 Frc consts  --      0.4114                 1.4919                 0.4799
 IR Inten    --     81.9032                 3.2350                 6.1159
 Raman Activ --      0.6369                 4.5040                 3.7780

                     13                     14                     15
                      A                      A                      A
 Frequencies --    833.5238               875.9861               933.9642
 Red. masses --      6.0725                 1.3116                 2.7831
 Frc consts  --      2.4857                 0.5930                 1.4303
 IR Inten    --     32.7447                 1.4513                13.3123
 Raman Activ --     35.8327                 5.6526                16.0213

                     16                     17                     18
                      A                      A                      A
 Frequencies --    990.5632              1094.1180              1108.4555
 Red. masses --      2.1085                 2.1492                 1.2464
 Frc consts  --      1.2189                 1.5158                 0.9023
 IR Inten    --      0.3285                 3.3586                 2.9777
 Raman Activ --      7.6839                 8.7253                13.9234

                     19                     20                     21
                      A                      A                      A
 Frequencies --   1122.1677              1219.6265              1272.8009
 Red. masses --      1.7745                 2.2066                 1.6794
 Frc consts  --      1.3165                 1.9339                 1.6029
 IR Inten    --      6.3527                68.4947                17.8369
 Raman Activ --      4.5863                 1.6450                 7.5990

                     22                     23                     24
                      A                      A                      A
 Frequencies --   1344.3191              1382.6892              1389.3590
 Red. masses --      2.1871                 1.6101                 1.7595
 Frc consts  --      2.3287                 1.8136                 2.0011
 IR Inten    --     32.8193                14.9718                 7.9660
 Raman Activ --      8.0970                19.2029                35.4131

                     25                     26                     27
                      A                      A                      A
 Frequencies --   1409.7864              1480.9250              1483.2128
 Red. masses --      1.2598                 1.0624                 1.0396
 Frc consts  --      1.4752                 1.3728                 1.3475
 IR Inten    --      8.4031                 2.3775                15.3709
 Raman Activ --      2.0434                37.4415                16.1406

                     28                     29                     30
                      A                      A                      A
 Frequencies --   1499.9393              1578.2722              3034.9106
 Red. masses --      1.0874                 5.0491                 1.0346
 Frc consts  --      1.4414                 7.4102                 5.6145
 IR Inten    --     11.0404                 9.1064                23.6025
 Raman Activ --      2.8240                71.0134               324.1742

                     31                     32                     33
                      A                      A                      A
 Frequencies --   3067.0749              3099.5697              3107.7732
 Red. masses --      1.0661                 1.1019                 1.1013
 Frc consts  --      5.9090                 6.2373                 6.2667
 IR Inten    --     32.9594                20.5716                44.8300
 Raman Activ --    252.8623               154.1694               178.7088

                     34                     35                     36
                      A                      A                      A
 Frequencies --   3136.4618              3233.4746              3261.9522
 Red. masses --      1.1024                 1.0912                 1.1033
 Frc consts  --      6.3895                 6.7220                 6.9169
 IR Inten    --     21.2910                 1.9352                 2.3400
 Raman Activ --     70.3328               182.3939               336.1535

 - Thermochemistry -
 -------------------
 Temperature   298.150 Kelvin.  Pressure   1.00000 Atm.
 Thermochemistry will use frequencies scaled by 0.9670.

 Molecular mass:   113.02992 amu.
 Principal axes and moments of inertia in atomic units:
                           1         2         3
     Eigenvalues --   319.297841208.129061388.67043
           X           -0.70223   0.57480   0.42008
           Y            0.10969  -0.49565   0.86157
           Z            0.70345   0.65110   0.28501
 This molecule is an asymmetric top.
 Rotational symmetry number  1.
 Rotational temperatures (Kelvin)      0.27126     0.07169     0.06237
 Rotational constants (GHZ):           5.65222     1.49383     1.29962
 Zero-point vibrational energy     282036.2 (Joules/Mol)
                                   67.40828 (Kcal/Mol)
 Warning -- explicit consideration of   8 degrees of freedom as
           vibrations may cause significant error
 Vibrational temperatures:     95.33   195.20   313.19   504.66   533.03
          (Kelvin)            657.26   767.20   872.98   943.72  1015.95
                             1053.41  1118.99  1159.68  1218.76  1299.42
                             1378.17  1522.24  1542.19  1561.27  1696.86
                             1770.84  1870.35  1923.73  1933.01  1961.43
                             2060.41  2063.59  2086.86  2195.85  4222.46
                             4267.21  4312.42  4323.84  4363.75  4498.72
                             4538.35

 Zero-point correction=                           0.107422 (Hartree/Particle)
 Thermal correction to Energy=                    0.114418
 Thermal correction to Enthalpy=                  0.115362
 Thermal correction to Gibbs Free Energy=         0.075823
 Sum of electronic and zero-point Energies=           -647.647332
 Sum of electronic and thermal Energies=              -647.640336
 Sum of electronic and thermal Enthalpies=            -647.639392
 Sum of electronic and thermal Free Energies=         -647.678932

                     E (Thermal)             CV                S
                      KCal/Mol        Cal/Mol-Kelvin    Cal/Mol-Kelvin
 Total                   71.798             25.834             83.219
 Electronic               0.000              0.000              0.000
 Translational            0.889              2.981             40.083
 Rotational               0.889              2.981             27.773
 Vibrational             70.021             19.872             15.362
 Vibration     1          0.598              1.970              4.262
 Vibration     2          0.613              1.918              2.864
 Vibration     3          0.646              1.814              1.978
 Vibration     4          0.728              1.574              1.163
 Vibration     5          0.742              1.533              1.078
 Vibration     6          0.815              1.346              0.775
 Vibration     7          0.888              1.177              0.580
 Vibration     8          0.965              1.018              0.438

 Optimization completed.
    -- Stationary point found.
 Normal termination of Gaussian 16 at Fri Jun  2 11:05:36 2023.
