 Gaussian 16, Revision C.02,
 Gaussian 16:  ES64L-G16RevC.02  7-Dec-2021

 ----------------------------------------------------------------------
 #p freq=raman scale=0.967 guess=read geom=allcheck b3lyp/6-311+G(d,p)
 int=grid=ultrafine EmpiricalDispersion=GD3BJ SCRF=(Solvent=ethanol) sc
 f=(xqc,intrep,maxconventionalcycle=350) nosymm
 ----------------------------------------------------------------------

 Structure from the checkpoint file:  "/scratch1/svicchi/G09-1868838.pbs02/02-freq/IMIDCOCH3-CO2_binding-site_index-5-freq.chk"
 ----------------------------------
 IMIDCOCH3-CO2_binding-site_index-5
 ----------------------------------
 Charge = -1 Multiplicity = 1

                          Input orientation:
 ---------------------------------------------------------------------
 Center     Atomic      Atomic             Coordinates (Angstroms)
 Number     Number       Type             X           Y           Z
 ---------------------------------------------------------------------
      1          6           0       -1.616344    3.763096   -0.098410
      2          7           0       -1.917702    2.458778   -0.097403
      3          6           0       -2.178034    2.139069   -1.394463
      4          6           0       -2.038593    3.262000   -2.193035
      5          1           0       -2.453781    1.139891   -1.695474
      6          7           0       -1.683122    4.283422   -1.365450
      7          1           0       -2.143581    3.405196   -3.255778
      8          6           0       -1.387713    4.560801    1.112160
      9          8           0       -1.443895    5.784552    1.088431
     10          6           0       -1.085006    3.797287    2.377977
     11          1           0       -1.758365    2.947502    2.493556
     12          1           0       -0.068182    3.395872    2.319684
     13          1           0       -1.158214    4.467357    3.233555
     14          6           0       -1.251751    5.669016   -1.884310
     15          8           0       -0.066899    5.926693   -1.669857
     16          8           0       -2.157802    6.263460   -2.474790
 ---------------------------------------------------------------------

 SCF Done:  E(RB3LYP) =  -567.194650327     A.U. after    2 cycles

 Alpha  occ. eigenvalues --  -19.11475 -19.07948 -19.07860 -14.36605 -14.30910
 Alpha  occ. eigenvalues --  -10.29864 -10.26825 -10.22766 -10.20604 -10.19159
 Alpha  occ. eigenvalues --  -10.16719  -1.06403  -1.04632  -1.01013  -0.97079
 Alpha  occ. eigenvalues --   -0.87423  -0.77397  -0.73027  -0.63640  -0.60855
 Alpha  occ. eigenvalues --   -0.59712  -0.51107  -0.48022  -0.46401  -0.45739
 Alpha  occ. eigenvalues --   -0.45067  -0.44020  -0.43442  -0.42321  -0.41334
 Alpha  occ. eigenvalues --   -0.40188  -0.39269  -0.36250  -0.30147  -0.30067
 Alpha  occ. eigenvalues --   -0.27417  -0.27085  -0.26327  -0.24890  -0.23770
 Alpha virt. eigenvalues --   -0.05813   0.00969   0.02545   0.02977   0.03225
 Alpha virt. eigenvalues --    0.04147   0.04567   0.04881   0.05486   0.05540
 Alpha virt. eigenvalues --    0.06850   0.07578   0.07859   0.08396   0.08679

 Mulliken charges:
               1
     1  C   -0.122526
     2  N   -0.194497
     3  C   -0.115903
     4  C    0.031490
     5  H    0.139439
     6  N   -0.008682
     7  H    0.154716
     8  C    0.287675
     9  O   -0.376646
    10  C   -0.601533
    11  H    0.176356
    12  H    0.180854
    13  H    0.163749
    14  C    0.230001
    15  O   -0.471473
    16  O   -0.473019
 Sum of Mulliken charges =  -1.00000

 Dipole moment (field-independent basis, Debye):
    X=              6.0744    Y=            -29.4852    Z=              5.9079  Tot=             30.6786
 Quadrupole moment (field-independent basis, Debye-Ang):
   XX=            -80.7848   YY=           -254.5046   ZZ=            -75.6160
   XY=             36.8011   XZ=             -5.8290   YZ=             42.2273

  Exact polarizability:      99.116      11.890     151.935      16.637       7.022     151.293
 Approx polarizability:     117.091      12.316     177.301      20.528      11.725     166.642

                      1                      2                      3
                      A                      A                      A
 Frequencies --     21.0321                64.2016                91.8357
 Red. masses --      6.0150                 1.4507                 2.5861
 Frc consts  --      0.0016                 0.0035                 0.0129
 IR Inten    --      0.6946                 1.9485                 0.9093
 Raman Activ --      3.9320                 1.7939                 5.4979

                      4                      5                      6
                      A                      A                      A
 Frequencies --    134.2618               154.5711               172.8014
 Red. masses --      6.6470                 8.4430                 6.0479
 Frc consts  --      0.0706                 0.1189                 0.1064
 IR Inten    --      9.3926                 1.7116                 2.7014
 Raman Activ --      4.5328                 3.8859                 4.8006

                      7                      8                      9
                      A                      A                      A
 Frequencies --    244.2052               334.9898               378.2774
 Red. masses --      4.4903                 9.5572                 4.5961
 Frc consts  --      0.1578                 0.6319                 0.3875
 IR Inten    --     29.5910                 9.5610                 1.1531
 Raman Activ --      2.7535                 9.3021                 1.3573

                     10                     11                     12
                      A                      A                      A
 Frequencies --    478.4582               561.2281               585.9126
 Red. masses --      6.8998                 6.4347                 3.0824
 Frc consts  --      0.9306                 1.1942                 0.6234
 IR Inten    --     13.2455                17.4917                10.7573
 Raman Activ --      6.8498                 9.4824                 1.1029

                     13                     14                     15
                      A                      A                      A
 Frequencies --    635.6636               668.4289               731.9040
 Red. masses --      3.8179                 3.9825                 9.4937
 Frc consts  --      0.9089                 1.0484                 2.9964
 IR Inten    --     64.7257                 8.1409               311.5448
 Raman Activ --      7.4159                 1.9794                17.7728

                     16                     17                     18
                      A                      A                      A
 Frequencies --    745.1242               785.3710               803.7066
 Red. masses --      7.1788                 1.3793                 6.0970
 Frc consts  --      2.3483                 0.5013                 2.3204
 IR Inten    --    125.3929                82.1450                28.7631
 Raman Activ --     11.1113                12.6969                 5.7822

                     19                     20                     21
                      A                      A                      A
 Frequencies --    873.7022               940.3844               962.2196
 Red. masses --      1.4205                 4.8435                 2.6933
 Frc consts  --      0.6389                 2.5236                 1.4692
 IR Inten    --      2.5975                72.0091                61.3938
 Raman Activ --      5.3469                52.4724                47.2745

                     22                     23                     24
                      A                      A                      A
 Frequencies --   1037.4649              1048.5871              1108.6222
 Red. masses --      1.8286                 2.0347                 1.8699
 Frc consts  --      1.1596                 1.3181                 1.3540
 IR Inten    --     20.3510                61.6804                54.2024
 Raman Activ --      4.9984                 8.4632                 6.3451

                     25                     26                     27
                      A                      A                      A
 Frequencies --   1181.1668              1188.5856              1258.5299
 Red. masses --      1.9992                 4.0758                 6.6002
 Frc consts  --      1.6434                 3.3925                 6.1593
 IR Inten    --     63.4190               292.2404               160.9069
 Raman Activ --     63.7521                71.1554               165.1574

                     28                     29                     30
                      A                      A                      A
 Frequencies --   1290.0638              1362.3157              1379.5918
 Red. masses --      6.8680                 5.8633                 1.4215
 Frc consts  --      6.7344                 6.4113                 1.5940
 IR Inten    --    367.1461                13.5764                26.3136
 Raman Activ --     32.2008                 8.7305                59.8207

                     31                     32                     33
                      A                      A                      A
 Frequencies --   1423.7911              1454.5952              1456.3195
 Red. masses --      3.7682                 1.0579                 1.1244
 Frc consts  --      4.5007                 1.3188                 1.4050
 IR Inten    --    411.6604                28.7716                13.3755
 Raman Activ --    534.6972                19.0782                42.0004

                     34                     35                     36
                      A                      A                      A
 Frequencies --   1463.1384              1507.8196              1697.0131
 Red. masses --      3.5881                 5.0341                10.3422
 Frc consts  --      4.5257                 6.7433                17.5482
 IR Inten    --     44.7092                36.0784               593.6308
 Raman Activ --     37.2081                16.1762               393.4151

                     37                     38                     39
                      A                      A                      A
 Frequencies --   1753.4614              3038.5984              3106.1833
 Red. masses --     12.9164                 1.0405                 1.0923
 Frc consts  --     23.3983                 5.6601                 6.2091
 IR Inten    --   1198.9428                 2.6631                11.4230
 Raman Activ --     16.4022               375.0763               138.7155

                     40                     41                     42
                      A                      A                      A
 Frequencies --   3145.6086              3231.4361              3265.5059
 Red. masses --      1.1052                 1.0939                 1.1023
 Frc consts  --      6.4430                 6.7299                 6.9252
 IR Inten    --     17.8892                11.0430                 2.4901
 Raman Activ --    140.6928               221.3496               254.7648

 - Thermochemistry -
 -------------------
 Temperature   298.150 Kelvin.  Pressure   1.00000 Atm.
 Thermochemistry will use frequencies scaled by 0.9670.

 Molecular mass:   153.03002 amu.
 Principal axes and moments of inertia in atomic units:
                           1         2         3
     Eigenvalues --  1164.357841584.710482472.46560
           X            0.00574   0.28132   0.95960
           Y           -0.45979   0.85290  -0.24729
           Z            0.88801   0.43979  -0.13424
 This molecule is an asymmetric top.
 Rotational symmetry number  1.
 Warning -- assumption of classical behavior for rotation
           may cause significant error
 Rotational temperatures (Kelvin)      0.07439     0.05466     0.03503
 Rotational constants (GHZ):           1.54999     1.13885     0.72994
 Zero-point vibrational energy     276279.8 (Joules/Mol)
                                   66.03246 (Kcal/Mol)
 Warning -- explicit consideration of  13 degrees of freedom as
           vibrations may cause significant error
 Vibrational temperatures:     29.26    89.32   127.77   186.80   215.05
          (Kelvin)            240.42   339.76   466.07   526.30   665.68
                              780.84   815.18   884.40   929.98  1018.30
                             1036.69  1092.68  1118.19  1215.58  1308.35
                             1338.73  1443.42  1458.90  1542.42  1643.35
                             1653.68  1750.99  1794.86  1895.39  1919.42
                             1980.92  2023.77  2026.17  2035.66  2097.83
                             2361.05  2439.59  4227.59  4321.62  4376.48
                             4495.89  4543.29

 Zero-point correction=                           0.105229 (Hartree/Particle)
 Thermal correction to Energy=                    0.115409
 Thermal correction to Enthalpy=                  0.116353
 Thermal correction to Gibbs Free Energy=         0.067621
 Sum of electronic and zero-point Energies=           -567.089421
 Sum of electronic and thermal Energies=              -567.079242
 Sum of electronic and thermal Enthalpies=            -567.078298
 Sum of electronic and thermal Free Energies=         -567.127029

                     E (Thermal)             CV                S
                      KCal/Mol        Cal/Mol-Kelvin    Cal/Mol-Kelvin
 Total                   72.420             35.371            102.564
 Electronic               0.000              0.000              0.000
 Translational            0.889              2.981             40.986
 Rotational               0.889              2.981             29.902
 Vibrational             70.643             29.409             31.676
 Vibration     1          0.593              1.986              6.601
 Vibration     2          0.597              1.972              4.390
 Vibration     3          0.602              1.957              3.686
 Vibration     4          0.612              1.923              2.949
 Vibration     5          0.618              1.903              2.679
 Vibration     6          0.624              1.883              2.468
 Vibration     7          0.655              1.785              1.832
 Vibration     8          0.708              1.628              1.290
 Vibration     9          0.739              1.543              1.097
 Vibration    10          0.820              1.333              0.758
 Vibration    11          0.898              1.156              0.559
 Vibration    12          0.922              1.104              0.511
 Vibration    13          0.974              1.001              0.425

 Normal termination of Gaussian 16 at Thu Jan 11 12:38:55 2024.
