 Gaussian 16, Revision C.01,
 Gaussian 16:  ES64L-G16RevC.01  3-Jul-2019

 ----------------------------------------------------------------------
 #p freq=raman scale=0.967 pop=(nbo,full,hirshfeld) guess=read geom=all
 check b3lyp/6-311+G(d,p) int=grid=ultrafine EmpiricalDispersion=GD3BJ
 SCRF=(Solvent=ethanol) scf=(xqc,intrep,maxconventionalcycle=350) nosym
 m
 ----------------------------------------------------------------------

 Structure from the checkpoint file:  "/scratch1/svicchi/G09-659896.pbs02/02-freq/PDA-CO2_binding_direct-site_index-5-freq.chk"
 ---------------------------------------
 PDA-CO2_binding_direct-site_index-5.gjf
 ---------------------------------------
 Charge =  0 Multiplicity = 1

                          Input orientation:
 ---------------------------------------------------------------------
 Center     Atomic      Atomic             Coordinates (Angstroms)
 Number     Number       Type             X           Y           Z
 ---------------------------------------------------------------------
      1          6           0       -3.354028    0.893005    0.442554
      2          6           0       -2.037012    1.662596    0.408402
      3          6           0       -0.840564    0.781918    0.043466
      4          1           0       -1.864471    2.122998    1.389627
      5          1           0       -2.121583    2.484651   -0.310956
      6          7           0       -4.475756    1.785148    0.776972
      7          1           0       -3.259673    0.049178    1.142123
      8          1           0       -3.552561    0.468029   -0.546162
      9          1           0       -5.345114    1.260607    0.807075
     10          6           0        0.480082    1.553334    0.003641
     11          1           0       -1.019961    0.315935   -0.933247
     12          1           0       -0.758665   -0.039005    0.766449
     13          6           0        1.672914    0.673563   -0.359678
     14          7           0        2.920576    1.455724   -0.379677
     15          1           0        1.470116    0.173137   -1.318824
     16          1           0        1.784985   -0.115069    0.391311
     17          1           0        0.666889    2.021096    0.976839
     18          1           0        0.401477    2.369657   -0.725926
     19          1           0        2.880861    2.146540   -1.124513
     20          1           0        3.707942    0.851999   -0.596941
     21          1           0       -4.345646    2.173714    1.707315
     22          6           0       -4.714512    3.563586   -1.359340
     23          8           0       -4.519660    2.694625   -2.105849
     24          8           0       -4.916975    4.494912   -0.694681
 ---------------------------------------------------------------------

 SCF Done:  E(RB3LYP) =  -497.249538748     A.U. after    1 cycles

 Alpha  occ. eigenvalues --  -19.19576 -19.19567 -14.29699 -14.29550 -10.35569
 Alpha  occ. eigenvalues --  -10.19003 -10.18980 -10.16418 -10.16311 -10.16220
 Alpha  occ. eigenvalues --   -1.15736  -1.11827  -0.88589  -0.88332  -0.79408
 Alpha  occ. eigenvalues --   -0.72869  -0.65074  -0.59320  -0.58261  -0.56148
 Alpha  occ. eigenvalues --   -0.52021  -0.51298  -0.51166  -0.49356  -0.49036
 Alpha  occ. eigenvalues --   -0.47632  -0.45241  -0.45050  -0.42147  -0.39282
 Alpha  occ. eigenvalues --   -0.39207  -0.36987  -0.36804  -0.36364  -0.34572
 Alpha  occ. eigenvalues --   -0.33490  -0.32863  -0.32616  -0.25207  -0.24938
 Alpha virt. eigenvalues --   -0.00602   0.00624   0.01500   0.02146   0.02606
 Alpha virt. eigenvalues --    0.03218   0.03460   0.03794   0.04565   0.05660
 Alpha virt. eigenvalues --    0.05784   0.06196   0.06935   0.07236   0.08321

 Mulliken charges:
               1
     1  C   -0.465571
     2  C   -0.117106
     3  C   -0.185237
     4  H    0.133279
     5  H    0.136122
     6  N   -0.490168
     7  H    0.131915
     8  H    0.160030
     9  H    0.252732
    10  C   -0.244880
    11  H    0.140452
    12  H    0.142095
    13  C   -0.343958
    14  N   -0.511920
    15  H    0.129746
    16  H    0.139489
    17  H    0.142674
    18  H    0.132508
    19  H    0.229032
    20  H    0.247913
    21  H    0.229362
    22  C    0.496899
    23  O   -0.235199
    24  O   -0.250210
 Sum of Mulliken charges =   0.00000

 Dipole moment (field-independent basis, Debye):
    X=             -0.0729    Y=             -2.4787    Z=              0.0037  Tot=              2.4797
 Quadrupole moment (field-independent basis, Debye-Ang):
   XX=            -63.4237   YY=            -74.7460   ZZ=            -61.4345
   XY=              5.7360   XZ=            -11.7899   YZ=             -1.8638

  Exact polarizability:     123.648      -3.959     125.725      -3.558       7.629     115.108
 Approx polarizability:     119.589      -4.856     142.566      -3.046      15.036     131.223

 Summary of Natural Population Analysis:

                                       Natural Population
                Natural  -----------------------------------------------
    Atom  No    Charge         Core      Valence    Rydberg      Total
 -----------------------------------------------------------------------
      C    1   -0.18010      1.99930     4.16332    0.01748     6.18010
      C    2   -0.38876      1.99928     4.37374    0.01574     6.38876
      C    3   -0.38241      1.99927     4.36829    0.01485     6.38241
      H    4    0.19064      0.00000     0.80707    0.00229     0.80936
      H    5    0.19315      0.00000     0.80422    0.00263     0.80685
      N    6   -0.86636      1.99954     5.84582    0.02100     7.86636
      H    7    0.16377      0.00000     0.83362    0.00260     0.83623
      H    8    0.18485      0.00000     0.81294    0.00220     0.81515
      H    9    0.36309      0.00000     0.63474    0.00216     0.63691
      C   10   -0.38933      1.99928     4.37368    0.01638     6.38933
      H   11    0.19243      0.00000     0.80491    0.00266     0.80757
      H   12    0.19238      0.00000     0.80498    0.00263     0.80762
      C   13   -0.17916      1.99930     4.16190    0.01796     6.17916
      N   14   -0.87252      1.99954     5.85120    0.02177     7.87252
      H   15    0.16089      0.00000     0.83628    0.00283     0.83911
      H   16    0.18121      0.00000     0.81651    0.00227     0.81879
      H   17    0.19492      0.00000     0.80237    0.00272     0.80508
      H   18    0.18975      0.00000     0.80790    0.00235     0.81025
      H   19    0.35412      0.00000     0.64300    0.00287     0.64588
      H   20    0.36025      0.00000     0.63741    0.00235     0.63975
      H   21    0.35744      0.00000     0.63995    0.00261     0.64256
      C   22    1.02602      1.99972     2.92147    0.05279     4.97398
      O   23   -0.52356      1.99971     6.50977    0.01408     8.52356
      O   24   -0.52272      1.99971     6.50911    0.01391     8.52272
 =======================================================================
   * Total *   -0.00000     19.99464    59.76422    0.24113    80.00000

                      1                      2                      3
                      A                      A                      A
 Frequencies --     23.6782                30.0124                37.2641
 Red. masses --     11.8924                 7.2444                 1.8410
 Frc consts  --      0.0039                 0.0038                 0.0015
 IR Inten    --      0.0377                 0.3813                 5.8910
 Raman Activ --      3.1887                 0.8143                 0.2917

                      4                      5                      6
                      A                      A                      A
 Frequencies --     66.9189                92.1376                92.3535
 Red. masses --      3.9658                 3.3486                 2.4319
 Frc consts  --      0.0105                 0.0167                 0.0122
 IR Inten    --      1.5463                 4.3401                 6.5375
 Raman Activ --      0.3192                 0.2248                 2.1163

                      7                      8                      9
                      A                      A                      A
 Frequencies --    112.5638               139.3139               147.1295
 Red. masses --      3.8527                 2.4953                 2.3710
 Frc consts  --      0.0288                 0.0285                 0.0302
 IR Inten    --      2.3182                 4.6945                 0.0237
 Raman Activ --      1.3309                 1.6789                 0.1394

                     10                     11                     12
                      A                      A                      A
 Frequencies --    181.1687               238.8333               263.7908
 Red. masses --      3.0136                 1.3829                 1.6354
 Frc consts  --      0.0583                 0.0465                 0.0671
 IR Inten    --      3.5892                38.1489                27.1385
 Raman Activ --      2.9241                 0.2945                 0.5080

                     13                     14                     15
                      A                      A                      A
 Frequencies --    302.2693               316.2775               452.9360
 Red. masses --      1.7112                 2.6550                 2.8445
 Frc consts  --      0.0921                 0.1565                 0.3438
 IR Inten    --     57.0453                12.3293                 0.0481
 Raman Activ --      1.6976                 5.8824                 0.4136

                     16                     17                     18
                      A                      A                      A
 Frequencies --    510.2928               599.0944               663.6215
 Red. masses --      3.4730                12.7995                12.6878
 Frc consts  --      0.5328                 2.7066                 3.2921
 IR Inten    --     21.4581               137.8170                47.4256
 Raman Activ --      0.0601                36.3355                 0.0839

                     19                     20                     21
                      A                      A                      A
 Frequencies --    740.4009               769.9689               831.5499
 Red. masses --      1.0670                 1.1052                 1.1609
 Frc consts  --      0.3446                 0.3860                 0.4730
 IR Inten    --      6.9620                 9.2426                60.0804
 Raman Activ --      0.0247                 0.4132                 1.9678

                     22                     23                     24
                      A                      A                      A
 Frequencies --    868.8968               896.0629               953.8589
 Red. masses --      1.2441                 1.2965                 2.7158
 Frc consts  --      0.5534                 0.6133                 1.4559
 IR Inten    --    175.2590               125.2667                 8.7940
 Raman Activ --      8.8819                 3.9578                 0.4701

                     25                     26                     27
                      A                      A                      A
 Frequencies --    976.0669               997.5066              1041.6318
 Red. masses --      1.3498                 3.0866                 1.9117
 Frc consts  --      0.7577                 1.8095                 1.2221
 IR Inten    --      8.9722                 8.2609                 2.4411
 Raman Activ --      7.9339                 5.9798                 9.5465

                     28                     29                     30
                      A                      A                      A
 Frequencies --   1062.5890              1071.5799              1084.8741
 Red. masses --      2.9012                 2.3091                 2.7027
 Frc consts  --      1.9300                 1.5622                 1.8742
 IR Inten    --     14.7107                22.6976                 1.2854
 Raman Activ --      1.3573                22.0853                11.7109

                     31                     32                     33
                      A                      A                      A
 Frequencies --   1125.1761              1169.8065              1210.7525
 Red. masses --      1.4584                 1.5629                 1.5140
 Frc consts  --      1.0878                 1.2601                 1.3077
 IR Inten    --     17.0398                 8.7016                 3.1478
 Raman Activ --      6.6544                 3.2985                 6.2187

                     34                     35                     36
                      A                      A                      A
 Frequencies --   1266.6127              1267.8484              1320.1276
 Red. masses --      1.3183                 1.3955                 1.2849
 Frc consts  --      1.2461                 1.3216                 1.3194
 IR Inten    --      1.4603                 0.2413                 2.5014
 Raman Activ --      1.2158                 3.2268                 1.1271

                     37                     38                     39
                      A                      A                      A
 Frequencies --   1325.1158              1328.3563              1334.4411
 Red. masses --      1.0832                 1.1232                 1.0839
 Frc consts  --      1.1206                 1.1677                 1.1372
 IR Inten    --      0.7099                 0.1731                 3.1160
 Raman Activ --     46.9204                12.2548                 1.6428

                     40                     41                     42
                      A                      A                      A
 Frequencies --   1357.7462              1364.8896              1397.4525
 Red. masses --      1.3276                15.3303                 1.5272
 Frc consts  --      1.4420                16.8265                 1.7572
 IR Inten    --      0.3319                 6.6783                 0.9882
 Raman Activ --      1.1751                57.1738                 1.6638

                     43                     44                     45
                      A                      A                      A
 Frequencies --   1423.8133              1427.4026              1475.6601
 Red. masses --      1.4888                 1.4749                 1.0755
 Frc consts  --      1.7782                 1.7706                 1.3799
 IR Inten    --     27.7399                 3.1262                 0.1440
 Raman Activ --      0.6619                 1.8334                56.4815

                     46                     47                     48
                      A                      A                      A
 Frequencies --   1482.0855              1497.2109              1511.6197
 Red. masses --      1.0847                 1.0917                 1.0904
 Frc consts  --      1.4038                 1.4418                 1.4680
 IR Inten    --      0.1152                 2.7341                 4.6995
 Raman Activ --      0.1753                11.8447                 0.8473

                     49                     50                     51
                      A                      A                      A
 Frequencies --   1515.1874              1643.9581              1647.1044
 Red. masses --      1.0935                 1.0877                 1.0871
 Frc consts  --      1.4791                 1.7319                 1.7376
 IR Inten    --      7.1978                48.6875                48.2665
 Raman Activ --     10.9917                 5.1973                 4.9705

                     52                     53                     54
                      A                      A                      A
 Frequencies --   2372.7128              2954.6644              2961.0150
 Red. masses --     12.8617                 1.0721                 1.0721
 Frc consts  --     42.6619                 5.5143                 5.5382
 IR Inten    --   1077.5948               111.9423               104.6188
 Raman Activ --      1.5056               274.6113               289.9649

                     55                     56                     57
                      A                      A                      A
 Frequencies --   2998.4271              2999.8018              3006.0528
 Red. masses --      1.0606                 1.0615                 1.0638
 Frc consts  --      5.6181                 5.6280                 5.6636
 IR Inten    --      1.5427                 7.7847               149.6534
 Raman Activ --    521.2789               299.7618                91.6069

                     58                     59                     60
                      A                      A                      A
 Frequencies --   3021.4023              3033.2004              3040.1900
 Red. masses --      1.0947                 1.0887                 1.0914
 Frc consts  --      5.8881                 5.9017                 5.9432
 IR Inten    --      1.7020                73.0775                 5.6061
 Raman Activ --    383.7121                14.8417               141.2946

                     61                     62                     63
                      A                      A                      A
 Frequencies --   3051.7580              3059.2855              3486.9259
 Red. masses --      1.0986                 1.1021                 1.0506
 Frc consts  --      6.0282                 6.0771                 7.5259
 IR Inten    --     23.6310               267.4276                 0.1501
 Raman Activ --    118.6177                 9.4118               242.8506

                     64                     65                     66
                      A                      A                      A
 Frequencies --   3487.3135              3559.6086              3560.2947
 Red. masses --      1.0504                 1.0922                 1.0926
 Frc consts  --      7.5263                 8.1539                 8.1596
 IR Inten    --      0.0245                 2.3534                 3.0887
 Raman Activ --    273.3789               133.5703               128.4953

 - Thermochemistry -
 -------------------
 Temperature   298.150 Kelvin.  Pressure   1.00000 Atm.
 Thermochemistry will use frequencies scaled by 0.9670.

 Molecular mass:   146.10553 amu.
 Principal axes and moments of inertia in atomic units:
                           1         2         3
     Eigenvalues --   837.933264669.748845077.77045
           X            0.95187   0.27452   0.13632
           Y           -0.29626   0.71002   0.63883
           Z            0.07858  -0.64847   0.75718
 This molecule is an asymmetric top.
 Rotational symmetry number  1.
 Warning -- assumption of classical behavior for rotation
           may cause significant error
 Rotational temperatures (Kelvin)      0.10337     0.01855     0.01706
 Rotational constants (GHZ):           2.15380     0.38648     0.35542
 Zero-point vibrational energy     527783.0 (Joules/Mol)
                                  126.14316 (Kcal/Mol)
 Warning -- explicit consideration of  17 degrees of freedom as
           vibrations may cause significant error
 Vibrational temperatures:     32.94    41.76    51.85    93.10   128.19
          (Kelvin)            128.49   156.61   193.83   204.70   252.06
                              332.29   367.01   420.55   440.04   630.17
                              709.97   833.52   923.29  1030.12  1071.26
                             1156.93  1208.89  1246.69  1327.10  1358.00
                             1387.83  1449.22  1478.38  1490.89  1509.38
                             1565.45  1627.55  1684.52  1762.23  1763.95
                             1836.69  1843.63  1848.14  1856.60  1889.03
                             1898.97  1944.27  1980.95  1985.94  2053.08
                             2062.02  2083.07  2103.11  2108.08  2287.23
                             2291.61  3301.15  4110.82  4119.65  4171.70
                             4173.62  4182.31  4203.67  4220.08  4229.81
                             4245.90  4256.38  4851.35  4851.89  4952.47
                             4953.43

 Zero-point correction=                           0.201022 (Hartree/Particle)
 Thermal correction to Energy=                    0.215008
 Thermal correction to Enthalpy=                  0.215953
 Thermal correction to Gibbs Free Energy=         0.157016
 Sum of electronic and zero-point Energies=           -497.048517
 Sum of electronic and thermal Energies=              -497.034530
 Sum of electronic and thermal Enthalpies=            -497.033586
 Sum of electronic and thermal Free Energies=         -497.092523

                     E (Thermal)             CV                S
                      KCal/Mol        Cal/Mol-Kelvin    Cal/Mol-Kelvin
 Total                  134.920             46.023            124.042
 Electronic               0.000              0.000              0.000
 Translational            0.889              2.981             40.848
 Rotational               0.889              2.981             31.364
 Vibrational            133.142             40.062             51.830
 Vibration     1          0.593              1.985              6.366
 Vibration     2          0.593              1.984              5.895
 Vibration     3          0.594              1.982              5.466
 Vibration     4          0.597              1.971              4.308
 Vibration     5          0.602              1.957              3.680
 Vibration     6          0.602              1.957              3.675
 Vibration     7          0.606              1.942              3.289
 Vibration     8          0.613              1.919              2.878
 Vibration     9          0.616              1.911              2.773
 Vibration    10          0.627              1.873              2.379
 Vibration    11          0.653              1.794              1.872
 Vibration    12          0.665              1.754              1.695
 Vibration    13          0.688              1.688              1.461
 Vibration    14          0.696              1.663              1.385
 Vibration    15          0.798              1.387              0.833
 Vibration    16          0.849              1.265              0.675
 Vibration    17          0.936              1.076              0.487

 Normal termination of Gaussian 16 at Fri Jun  2 22:20:25 2023.
