 Gaussian 16, Revision C.01,
 Gaussian 16:  ES64L-G16RevC.01  3-Jul-2019

 ----------------------------------------------------------------------
 #p freq=raman scale=0.967 pop=(nbo,full,hirshfeld) guess=read geom=all
 check b3lyp/6-311+G(d,p) int=grid=ultrafine EmpiricalDispersion=GD3BJ
 SCRF=(Solvent=ethanol) scf=(xqc,intrep,maxconventionalcycle=350) nosym
 m
 ----------------------------------------------------------------------

 Structure from the checkpoint file:  "/scratch1/svicchi/G09-659761.pbs02/02-freq/123triz-CO2_binding-site_index-3-freq.chk"
 ------------------------------------
 123triz-CO2_binding-site_index-3.gjf
 ------------------------------------
 Charge = -1 Multiplicity = 1

                          Input orientation:
 ---------------------------------------------------------------------
 Center     Atomic      Atomic             Coordinates (Angstroms)
 Number     Number       Type             X           Y           Z
 ---------------------------------------------------------------------
      1          6           0       -3.650892    0.601104    0.006190
      2          6           0       -3.698859   -0.801893   -0.006042
      3          7           0       -2.372328    0.977066    0.006291
      4          7           0       -1.688031   -0.168303   -0.004476
      5          7           0       -2.448967   -1.263892   -0.012329
      6          1           0       -4.450250    1.325063    0.015248
      7          1           0       -4.545445   -1.470074   -0.010447
      8          6           0       -0.151679   -0.221288    0.000431
      9          8           0        0.371215    0.893640   -0.026714
     10          8           0        0.293982   -1.369240    0.031848
 ---------------------------------------------------------------------

 SCF Done:  E(RB3LYP) =  -430.506855210     A.U. after    1 cycles

 Alpha  occ. eigenvalues --  -19.07647 -19.07644 -14.40741 -14.34460 -14.34453
 Alpha  occ. eigenvalues --  -10.29632 -10.19845 -10.19794  -1.10467  -1.04495
 Alpha  occ. eigenvalues --   -0.97050  -0.88563  -0.81438  -0.63479  -0.62378
 Alpha  occ. eigenvalues --   -0.54682  -0.48381  -0.47963  -0.45069  -0.44666
 Alpha  occ. eigenvalues --   -0.41929  -0.40505  -0.32799  -0.29971  -0.29452
 Alpha  occ. eigenvalues --   -0.28167  -0.26974  -0.26803  -0.25106
 Alpha virt. eigenvalues --   -0.02535   0.01353   0.03342   0.03695   0.03912
 Alpha virt. eigenvalues --    0.05070   0.05762   0.06343   0.08166   0.08484
 Alpha virt. eigenvalues --    0.08592   0.10447   0.10551   0.10782   0.14820

 Mulliken charges:
               1
     1  C   -0.150905
     2  C   -0.150457
     3  N   -0.187014
     4  N   -0.005810
     5  N   -0.187057
     6  H    0.152432
     7  H    0.152436
     8  C    0.364281
     9  O   -0.493921
    10  O   -0.493985
 Sum of Mulliken charges =  -1.00000

 Dipole moment (field-independent basis, Debye):
    X=             -1.6350    Y=              1.1382    Z=             -0.0026  Tot=              1.9921
 Quadrupole moment (field-independent basis, Debye-Ang):
   XX=            -40.8437   YY=            -61.3709   ZZ=            -47.2426
   XY=             -0.3155   XZ=             -0.0397   YZ=              0.2091

  Exact polarizability:     108.295      -0.367      97.503      -0.027      -0.271      50.519
 Approx polarizability:     118.928       0.123     122.722      -0.075      -0.387      56.999

 Summary of Natural Population Analysis:

                                       Natural Population
                Natural  -----------------------------------------------
    Atom  No    Charge         Core      Valence    Rydberg      Total
 -----------------------------------------------------------------------
      C    1   -0.08462      1.99931     4.05723    0.02808     6.08462
      C    2   -0.08477      1.99931     4.05737    0.02809     6.08477
      N    3   -0.27843      1.99946     5.25597    0.02300     7.27843
      N    4   -0.11375      1.99938     5.06640    0.04797     7.11375
      N    5   -0.27803      1.99946     5.25557    0.02300     7.27803
      H    6    0.21732      0.00000     0.78136    0.00132     0.78268
      H    7    0.21735      0.00000     0.78133    0.00132     0.78265
      C    8    0.91228      1.99960     3.02684    0.06129     5.08772
      O    9   -0.75376      1.99975     6.74032    0.01369     8.75376
      O   10   -0.75359      1.99975     6.74015    0.01368     8.75359
 =======================================================================
   * Total *   -1.00000     15.99601    41.76253    0.24146    58.00000

                      1                      2                      3
                      A                      A                      A
 Frequencies --     33.6801               162.0449               248.2141
 Red. masses --      9.6991                 6.7716                 8.6335
 Frc consts  --      0.0065                 0.1048                 0.3134
 IR Inten    --      0.0098                 0.2234                 1.5877
 Raman Activ --      0.0849                 3.4826                 0.4609

                      4                      5                      6
                      A                      A                      A
 Frequencies --    376.8523               534.8508               672.7798
 Red. masses --     11.7134                11.3543                 3.7608
 Frc consts  --      0.9801                 1.9137                 1.0029
 IR Inten    --     48.6369                 2.4513                 0.1254
 Raman Activ --      5.0927                 3.7649                 0.4310

                      7                      8                      9
                      A                      A                      A
 Frequencies --    680.7593               731.0269               786.4484
 Red. masses --     12.9915                13.8694                12.5990
 Frc consts  --      3.5473                 4.3669                 4.5912
 IR Inten    --     10.9072               564.0302                30.7148
 Raman Activ --      1.1885                 6.0045                 1.9944

                     10                     11                     12
                      A                      A                      A
 Frequencies --    834.3471               889.4694               981.3616
 Red. masses --      1.1828                 1.3705                 7.6208
 Frc consts  --      0.4851                 0.6388                 4.3242
 IR Inten    --     69.8467                 0.0095                26.1130
 Raman Activ --      4.8332                 0.5905                 9.4697

                     13                     14                     15
                      A                      A                      A
 Frequencies --    983.8683              1087.6877              1179.1117
 Red. masses --      3.8017                 1.7775                 1.7299
 Frc consts  --      2.1682                 1.2390                 1.4170
 IR Inten    --     23.0466                 7.3640                38.8121
 Raman Activ --     31.2319                38.1244                 0.1478

                     16                     17                     18
                      A                      A                      A
 Frequencies --   1217.5279              1270.3844              1294.5860
 Red. masses --     13.4964                 4.3678                 9.9944
 Frc consts  --     11.7876                 4.1532                 9.8689
 IR Inten    --    644.3830                12.9409                66.5759
 Raman Activ --     57.0638                 0.2828                 8.7268

                     19                     20                     21
                      A                      A                      A
 Frequencies --   1316.8514              1440.0396              1496.4633
 Red. masses --      9.1904                 3.2042                 4.3894
 Frc consts  --      9.3898                 3.9149                 5.7915
 IR Inten    --    219.3532                12.8049                 9.9266
 Raman Activ --     92.7274                47.6342                 1.7030

                     22                     23                     24
                      A                      A                      A
 Frequencies --   1768.5949              3242.4738              3258.3136
 Red. masses --     12.8852                 1.0928                 1.1050
 Frc consts  --     23.7464                 6.7692                 6.9117
 IR Inten    --   1129.0173                 1.5358                 6.3349
 Raman Activ --     19.2505               150.8340               294.0687

 - Thermochemistry -
 -------------------
 Temperature   298.150 Kelvin.  Pressure   1.00000 Atm.
 Thermochemistry will use frequencies scaled by 0.9670.

 Molecular mass:   112.01470 amu.
 Principal axes and moments of inertia in atomic units:
                           1         2         3
     Eigenvalues --   328.534911013.373421341.71304
           X            0.99941   0.03437  -0.00055
           Y           -0.03437   0.99939   0.00686
           Z            0.00078  -0.00684   0.99998
 This molecule is an asymmetric top.
 Rotational symmetry number  1.
 Rotational temperatures (Kelvin)      0.26364     0.08547     0.06455
 Rotational constants (GHZ):           5.49330     1.78092     1.34510
 Zero-point vibrational energy     153203.6 (Joules/Mol)
                                   36.61654 (Kcal/Mol)
 Warning -- explicit consideration of   5 degrees of freedom as
           vibrations may cause significant error
 Vibrational temperatures:     46.86   225.45   345.34   524.31   744.14
          (Kelvin)            936.04   947.14  1017.08  1094.18  1160.82
                             1237.52  1365.37  1368.85  1513.30  1640.50
                             1693.94  1767.48  1801.15  1832.13  2003.52
                             2082.03  2460.64  4511.25  4533.28

 Zero-point correction=                           0.058352 (Hartree/Particle)
 Thermal correction to Energy=                    0.064567
 Thermal correction to Enthalpy=                  0.065511
 Thermal correction to Gibbs Free Energy=         0.026738
 Sum of electronic and zero-point Energies=           -430.448503
 Sum of electronic and thermal Energies=              -430.442289
 Sum of electronic and thermal Enthalpies=            -430.441344
 Sum of electronic and thermal Free Energies=         -430.480117

                     E (Thermal)             CV                S
                      KCal/Mol        Cal/Mol-Kelvin    Cal/Mol-Kelvin
 Total                   40.516             21.362             81.604
 Electronic               0.000              0.000              0.000
 Translational            0.889              2.981             40.056
 Rotational               0.889              2.981             27.593
 Vibrational             38.739             15.401             13.955
 Vibration     1          0.594              1.983              5.666
 Vibration     2          0.620              1.895              2.589
 Vibration     3          0.657              1.779              1.803
 Vibration     4          0.738              1.546              1.103
 Vibration     5          0.872              1.212              0.616

 Optimization completed.
    -- Stationary point found.
 Normal termination of Gaussian 16 at Fri Jun  2 11:44:11 2023.
