 Gaussian 16, Revision C.01,
 Gaussian 16:  ES64L-G16RevC.01  3-Jul-2019

 ----------------------------------------------------------------------
 #p freq=raman scale=0.967 pop=(nbo,full,hirshfeld) guess=read geom=all
 check b3lyp/6-311+G(d,p) int=grid=ultrafine EmpiricalDispersion=GD3BJ
 SCRF=(Solvent=ethanol) scf=(xqc,intrep,maxconventionalcycle=350) nosym
 m
 ----------------------------------------------------------------------

 Structure from the checkpoint file:  "/scratch1/svicchi/G09-659731.pbs02/02-freq/3ethylthiazolium-isolated-freq.chk"
 -----------------------------
 3ethylthiazolium-isolated.gjf
 -----------------------------
 Charge =  1 Multiplicity = 1

                          Input orientation:
 ---------------------------------------------------------------------
 Center     Atomic      Atomic             Coordinates (Angstroms)
 Number     Number       Type             X           Y           Z
 ---------------------------------------------------------------------
      1          7           0       -0.057411    0.132917   -0.030218
      2          6           0        1.044057   -0.600099   -0.044035
      3          6           0       -0.440453    0.586922   -1.281444
      4          6           0        0.403894    0.182644   -2.257595
      5         16           0        1.687846   -0.776806   -1.601634
      6          6           0       -0.852938    0.398038    1.196837
      7          6           0       -2.059678   -0.526711    1.283008
      8          1           0       -2.614380   -0.295534    2.193938
      9          1           0       -2.728515   -0.388910    0.431696
     10          1           0       -1.747908   -1.571714    1.322857
     11          1           0       -1.145080    1.446567    1.155923
     12          1           0       -0.179911    0.265535    2.041481
     13          1           0       -1.323582    1.196924   -1.379945
     14          1           0        0.352934    0.395098   -3.312506
     15          1           0        1.477056   -1.035401    0.842729
 ---------------------------------------------------------------------

 SCF Done:  E(RB3LYP) =  -648.236193639     A.U. after    1 cycles

 Alpha  occ. eigenvalues --  -88.94912 -14.45400 -10.30662 -10.26783 -10.25703
 Alpha  occ. eigenvalues --  -10.25241 -10.18822  -8.03467  -5.99734  -5.99329
 Alpha  occ. eigenvalues --   -5.99130  -1.07445  -0.89742  -0.82235  -0.79815
 Alpha  occ. eigenvalues --   -0.68935  -0.67374  -0.63077  -0.57830  -0.51663
 Alpha  occ. eigenvalues --   -0.51039  -0.49101  -0.47849  -0.46366  -0.42614
 Alpha  occ. eigenvalues --   -0.41799  -0.40410  -0.38717  -0.34412  -0.31455
 Alpha virt. eigenvalues --   -0.09530  -0.03706  -0.02802  -0.00519   0.01335
 Alpha virt. eigenvalues --    0.01860   0.02163   0.02886   0.03294   0.04843
 Alpha virt. eigenvalues --    0.04932   0.06185   0.06924   0.07171   0.07528

 Mulliken charges:
               1
     1  N    0.275250
     2  C   -0.230556
     3  C   -0.199991
     4  C   -0.165479
     5  S    0.332375
     6  C   -0.206774
     7  C   -0.393031
     8  H    0.176561
     9  H    0.160562
    10  H    0.163504
    11  H    0.206202
    12  H    0.190372
    13  H    0.206510
    14  H    0.239994
    15  H    0.244500
 Sum of Mulliken charges =   1.00000

 Dipole moment (field-independent basis, Debye):
    X=              0.6119    Y=             -0.2060    Z=             -1.6891  Tot=              1.8083
 Quadrupole moment (field-independent basis, Debye-Ang):
   XX=            -38.3910   YY=            -44.7160   ZZ=            -31.1811
   XY=             -5.3039   XZ=             -3.4542   YZ=             -1.4778

  Exact polarizability:     101.491     -17.481      77.240     -13.879      -1.186     108.144
 Approx polarizability:     121.456     -26.761      93.788     -12.740      -2.120     134.051

 Summary of Natural Population Analysis:

                                       Natural Population
                Natural  -----------------------------------------------
    Atom  No    Charge         Core      Valence    Rydberg      Total
 -----------------------------------------------------------------------
      N    1   -0.33879      1.99923     5.31993    0.01963     7.33879
      C    2   -0.05505      1.99927     4.03096    0.02481     6.05505
      C    3    0.00870      1.99908     3.97259    0.01963     5.99130
      C    4   -0.36680      1.99912     4.34859    0.01908     6.36680
      S    5    0.58937      9.99893     5.36984    0.04186    15.41063
      C    6   -0.16794      1.99928     4.15219    0.01647     6.16794
      C    7   -0.58922      1.99935     4.58174    0.00813     6.58922
      H    8    0.22848      0.00000     0.77045    0.00106     0.77152
      H    9    0.21403      0.00000     0.78461    0.00136     0.78597
      H   10    0.21528      0.00000     0.78326    0.00146     0.78472
      H   11    0.22875      0.00000     0.76960    0.00165     0.77125
      H   12    0.22751      0.00000     0.77096    0.00153     0.77249
      H   13    0.25869      0.00000     0.73987    0.00144     0.74131
      H   14    0.27525      0.00000     0.72352    0.00123     0.72475
      H   15    0.27174      0.00000     0.72684    0.00142     0.72826
 =======================================================================
   * Total *    1.00000     21.99426    37.84497    0.16077    60.00000

                      1                      2                      3
                      A                      A                      A
 Frequencies --     47.4237               135.9180               226.1474
 Red. masses --      2.5638                 3.7780                 1.1237
 Frc consts  --      0.0034                 0.0411                 0.0339
 IR Inten    --      0.7339                 0.3966                 0.0786
 Raman Activ --      2.8810                 3.8624                 0.0467

                      4                      5                      6
                      A                      A                      A
 Frequencies --    357.1262               370.9768               469.7828
 Red. masses --      2.5703                 3.1053                 4.1998
 Frc consts  --      0.1931                 0.2518                 0.5461
 IR Inten    --      0.3913                 0.4880                 0.0188
 Raman Activ --      0.9013                 3.1615                 1.4051

                      7                      8                      9
                      A                      A                      A
 Frequencies --    561.6578               642.6664               676.0802
 Red. masses --      4.7030                 3.1954                 5.6860
 Frc consts  --      0.8741                 0.7776                 1.5313
 IR Inten    --      7.4642                35.4530                 2.1194
 Raman Activ --     14.3591                 1.3606                12.0502

                     10                     11                     12
                      A                      A                      A
 Frequencies --    733.5327               804.0793               827.1175
 Red. masses --      1.2633                 1.2440                 3.0306
 Frc consts  --      0.4005                 0.4739                 1.2216
 IR Inten    --     29.7525                 3.1284                15.3428
 Raman Activ --      0.6050                 0.6491                10.5464

                     13                     14                     15
                      A                      A                      A
 Frequencies --    829.1387               893.4010               915.0898
 Red. masses --      1.3994                 1.2982                 3.4384
 Frc consts  --      0.5668                 0.6105                 1.6964
 IR Inten    --     65.4101                 0.1060                43.0426
 Raman Activ --      1.0269                 1.4275                25.9990

                     16                     17                     18
                      A                      A                      A
 Frequencies --    961.8987              1012.2262              1102.3539
 Red. masses --      2.5055                 2.5191                 2.0319
 Frc consts  --      1.3659                 1.5208                 1.4548
 IR Inten    --      1.0718                 1.5711                 5.4619
 Raman Activ --     18.5235                 9.4950                18.5630

                     19                     20                     21
                      A                      A                      A
 Frequencies --   1127.0593              1137.3156              1183.7471
 Red. masses --      1.3112                 1.5575                 1.9344
 Frc consts  --      0.9814                 1.1870                 1.5971
 IR Inten    --      4.8161                 6.9990                72.8903
 Raman Activ --      1.7387                 8.7583                24.9140

                     22                     23                     24
                      A                      A                      A
 Frequencies --   1270.3213              1297.3151              1373.7374
 Red. masses --      1.3119                 1.3763                 1.3387
 Frc consts  --      1.2474                 1.3648                 1.4884
 IR Inten    --      7.2463                26.5421                26.4469
 Raman Activ --     10.1084                 4.0414                 6.0959

                     25                     26                     27
                      A                      A                      A
 Frequencies --   1415.9377              1428.4732              1464.8787
 Red. masses --      1.2529                 1.9060                 3.4130
 Frc consts  --      1.4799                 2.2915                 4.3151
 IR Inten    --      6.7581                 5.3003                42.1064
 Raman Activ --      5.0794                17.3309                68.6215

                     28                     29                     30
                      A                      A                      A
 Frequencies --   1483.7072              1486.1297              1510.4907
 Red. masses --      1.0686                 1.0749                 1.1599
 Frc consts  --      1.3860                 1.3987                 1.5592
 IR Inten    --      6.9707                13.3921                20.3781
 Raman Activ --     21.6939                24.7410                 9.9309

                     31                     32                     33
                      A                      A                      A
 Frequencies --   1594.4590              3046.1459              3094.9149
 Red. masses --      4.4315                 1.0346                 1.0614
 Frc consts  --      6.6378                 5.6564                 5.9898
 IR Inten    --     33.8215                12.0883                 8.5081
 Raman Activ --     14.4819               311.5375               205.3800

                     34                     35                     36
                      A                      A                      A
 Frequencies --   3115.0248              3122.7333              3151.0677
 Red. masses --      1.1045                 1.1010                 1.1090
 Frc consts  --      6.3145                 6.3256                 6.4880
 IR Inten    --     13.0849                21.5302                11.5705
 Raman Activ --    147.4370               190.2642                56.4050

                     37                     38                     39
                      A                      A                      A
 Frequencies --   3259.2931              3261.4216              3278.9140
 Red. masses --      1.0928                 1.0970                 1.1050
 Frc consts  --      6.8397                 6.8751                 6.9999
 IR Inten    --     20.4677                43.2379                15.0985
 Raman Activ --    103.4414               113.5949               263.1936

 - Thermochemistry -
 -------------------
 Temperature   298.150 Kelvin.  Pressure   1.00000 Atm.
 Thermochemistry will use frequencies scaled by 0.9670.

 Molecular mass:   114.03775 amu.
 Principal axes and moments of inertia in atomic units:
                           1         2         3
     Eigenvalues --   324.100601232.734341415.36102
           X           -0.70139   0.56863   0.42978
           Y            0.11067  -0.50878   0.85376
           Z            0.70413   0.64638   0.29392
 This molecule is an asymmetric top.
 Rotational symmetry number  1.
 Rotational temperatures (Kelvin)      0.26724     0.07026     0.06120
 Rotational constants (GHZ):           5.56846     1.46401     1.27511
 Zero-point vibrational energy     316206.5 (Joules/Mol)
                                   75.57518 (Kcal/Mol)
 Warning -- explicit consideration of   7 degrees of freedom as
           vibrations may cause significant error
 Vibrational temperatures:     65.98   189.10   314.64   496.87   516.14
          (Kelvin)            653.61   781.43   894.14   940.63  1020.56
                             1118.71  1150.77  1153.58  1242.99  1273.16
                             1338.29  1408.31  1533.70  1568.07  1582.34
                             1646.94  1767.39  1804.95  1911.28  1969.99
                             1987.43  2038.08  2064.28  2067.65  2101.54
                             2218.37  4238.09  4305.95  4333.93  4344.65
                             4384.07  4534.65  4537.61  4561.94

 Zero-point correction=                           0.120437 (Hartree/Particle)
 Thermal correction to Energy=                    0.127517
 Thermal correction to Enthalpy=                  0.128461
 Thermal correction to Gibbs Free Energy=         0.088463
 Sum of electronic and zero-point Energies=           -648.115757
 Sum of electronic and thermal Energies=              -648.108676
 Sum of electronic and thermal Enthalpies=            -648.107732
 Sum of electronic and thermal Free Energies=         -648.147730

                     E (Thermal)             CV                S
                      KCal/Mol        Cal/Mol-Kelvin    Cal/Mol-Kelvin
 Total                   80.018             26.249             84.183
 Electronic               0.000              0.000              0.000
 Translational            0.889              2.981             40.110
 Rotational               0.889              2.981             27.827
 Vibrational             78.241             20.287             16.246
 Vibration     1          0.595              1.979              4.988
 Vibration     2          0.612              1.922              2.925
 Vibration     3          0.646              1.813              1.970
 Vibration     4          0.724              1.585              1.187
 Vibration     5          0.734              1.557              1.128
 Vibration     6          0.813              1.351              0.783
 Vibration     7          0.898              1.155              0.559

 Optimization completed.
    -- Stationary point found.
 Normal termination of Gaussian 16 at Fri Jun  2 11:16:24 2023.
