 Gaussian 16, Revision C.01,
 Gaussian 16:  ES64L-G16RevC.01  3-Jul-2019

 ----------------------------------------------------------------------
 #p freq=raman scale=0.967 pop=(nbo,full,hirshfeld) guess=read geom=all
 check b3lyp/6-311+G(d,p) int=grid=ultrafine EmpiricalDispersion=GD3BJ
 SCRF=(Solvent=ethanol) scf=(xqc,intrep,maxconventionalcycle=350) nosym
 m
 ----------------------------------------------------------------------

 Structure from the checkpoint file:  "/scratch1/svicchi/G09-659836.pbs02/02-freq/tetrazolide-isolated-freq.chk"
 ------------------------
 tetrazolide-isolated.gjf
 ------------------------
 Charge = -1 Multiplicity = 1

                          Input orientation:
 ---------------------------------------------------------------------
 Center     Atomic      Atomic             Coordinates (Angstroms)
 Number     Number       Type             X           Y           Z
 ---------------------------------------------------------------------
      1          7           0       -0.000844    1.100421   -0.002160
      2          7           0        1.099370    0.381018   -0.000972
      3          7           0       -1.129694    0.366195   -0.001308
      4          7           0        0.695712   -0.876641    0.000729
      5          6           0       -0.702338   -0.920856    0.000580
      6          1           0        0.019593    2.111401   -0.003558
 ---------------------------------------------------------------------

 SCF Done:  E(RB3LYP) =  -257.818325788     A.U. after    1 cycles

 Alpha  occ. eigenvalues --  -14.40065 -14.36148 -14.31592 -14.30474 -10.14643
 Alpha  occ. eigenvalues --   -1.10618  -0.89899  -0.83762  -0.63520  -0.59215
 Alpha  occ. eigenvalues --   -0.52131  -0.46135  -0.36732  -0.29171  -0.29043
 Alpha  occ. eigenvalues --   -0.25748  -0.25544  -0.19647
 Alpha virt. eigenvalues --   -0.00524   0.02421   0.04770   0.04978   0.05404
 Alpha virt. eigenvalues --    0.07119   0.08886   0.09044   0.11702   0.12909
 Alpha virt. eigenvalues --    0.14158   0.16501   0.17323   0.20068   0.20770

 Mulliken charges:
               1
     1  N   -0.070121
     2  N   -0.085526
     3  N   -0.307630
     4  N   -0.351688
     5  C   -0.517320
     6  H    0.332285
 Sum of Mulliken charges =  -1.00000

 Dipole moment (field-independent basis, Debye):
    X=              1.8654    Y=              7.1035    Z=             -0.0067  Tot=              7.3444
 Quadrupole moment (field-independent basis, Debye-Ang):
   XX=            -45.0521   YY=            -35.3459   ZZ=            -31.9706
   XY=             -1.9750   XZ=             -0.0004   YZ=              0.0002

  Exact polarizability:      76.217       4.413      81.541      -0.001      -0.050      45.700
 Approx polarizability:      89.276      -0.202      94.322       0.007      -0.063      49.580

 Summary of Natural Population Analysis:

                                       Natural Population
                Natural  -----------------------------------------------
    Atom  No    Charge         Core      Valence    Rydberg      Total
 -----------------------------------------------------------------------
      N    1   -0.18978      1.99949     5.15721    0.03309     7.18978
      N    2   -0.13832      1.99958     5.10030    0.03844     7.13832
      N    3   -0.43623      1.99954     5.40407    0.03261     7.43623
      N    4   -0.45028      1.99960     5.40651    0.04417     7.45028
      C    5   -0.20030      1.99964     4.11210    0.08856     6.20030
      H    6    0.41491      0.00000     0.58244    0.00265     0.58509
 =======================================================================
   * Total *   -1.00000      9.99786    25.76262    0.23952    36.00000

                      1                      2                      3
                      A                      A                      A
 Frequencies --    556.2416               704.2030               732.1811
 Red. masses --      1.6616                 3.8196                 5.5908
 Frc consts  --      0.3029                 1.1160                 1.7659
 IR Inten    --     89.6636                28.2775                20.4317
 Raman Activ --      0.0111                 0.2962                 0.2521

                      4                      5                      6
                      A                      A                      A
 Frequencies --    925.5725               993.6772              1045.7459
 Red. masses --     10.4549                 8.1063                 4.6584
 Frc consts  --      5.2771                 4.7159                 3.0015
 IR Inten    --     57.0790                25.0175                40.1243
 Raman Activ --     27.5101                19.8007                 8.2860

                      7                      8                      9
                      A                      A                      A
 Frequencies --   1097.4668              1167.6315              1178.4298
 Red. masses --     11.1534                13.4027                 4.9732
 Frc consts  --      7.9148                10.7660                 4.0690
 IR Inten    --      7.7693                22.2622                25.9706
 Raman Activ --     19.8650                13.0664                56.8155

                     10                     11                     12
                      A                      A                      A
 Frequencies --   1227.3737              1453.9629              3616.1904
 Red. masses --      5.6152                 1.8761                 1.0831
 Frc consts  --      4.9839                 2.3367                 8.3449
 IR Inten    --     26.2299                 0.6141               112.2937
 Raman Activ --     10.4063                29.1798               436.1693

 - Thermochemistry -
 -------------------
 Temperature   298.150 Kelvin.  Pressure   1.00000 Atm.
 Thermochemistry will use frequencies scaled by 0.9670.

 Molecular mass:    69.02012 amu.
 Principal axes and moments of inertia in atomic units:
                           1         2         3
     Eigenvalues --   163.11966 170.63841 333.75807
           X            0.92533   0.37916  -0.00016
           Y           -0.37916   0.92533   0.00141
           Z            0.00068  -0.00124   1.00000
 This molecule is an asymmetric top.
 Rotational symmetry number  1.
 Rotational temperatures (Kelvin)      0.53098     0.50759     0.25951
 Rotational constants (GHZ):          11.06391    10.57641     5.40733
 Zero-point vibrational energy      85016.3 (Joules/Mol)
                                   20.31939 (Kcal/Mol)
 Warning -- explicit consideration of   1 degrees of freedom as
           vibrations may cause significant error
 Vibrational temperatures:    773.90   979.76  1018.68  1287.75  1382.50
          (Kelvin)           1454.94  1526.90  1624.52  1639.55  1707.64
                             2022.89  5031.20

 Zero-point correction=                           0.032381 (Hartree/Particle)
 Thermal correction to Energy=                    0.035872
 Thermal correction to Enthalpy=                  0.036816
 Thermal correction to Gibbs Free Energy=         0.006342
 Sum of electronic and zero-point Energies=           -257.785945
 Sum of electronic and thermal Energies=              -257.782454
 Sum of electronic and thermal Enthalpies=            -257.781510
 Sum of electronic and thermal Free Energies=         -257.811984

                     E (Thermal)             CV                S
                      KCal/Mol        Cal/Mol-Kelvin    Cal/Mol-Kelvin
 Total                   22.510             11.238             64.137
 Electronic               0.000              0.000              0.000
 Translational            0.889              2.981             38.613
 Rotational               0.889              2.981             23.745
 Vibrational             20.732              5.276              1.780
 Vibration     1          0.893              1.166              0.570

 Optimization completed.
    -- Stationary point found.
 Normal termination of Gaussian 16 at Fri Jun  2 11:07:43 2023.
