 Gaussian 16, Revision C.01,
 Gaussian 16:  ES64L-G16RevC.01  3-Jul-2019

 ----------------------------------------------------------------------
 #p freq=raman scale=0.967 pop=(nbo,full,hirshfeld) guess=read geom=all
 check b3lyp/6-311+G(d,p) int=grid=ultrafine EmpiricalDispersion=GD3BJ
 SCRF=(Solvent=ethanol) scf=(xqc,intrep,maxconventionalcycle=350) nosym
 m
 ----------------------------------------------------------------------

 Structure from the checkpoint file:  "/scratch1/svicchi/G09-659853.pbs02/02-freq/pyrazolide-isolated-freq.chk"
 -----------------------
 pyrazolide-isolated.gjf
 -----------------------
 Charge = -1 Multiplicity = 1

                          Input orientation:
 ---------------------------------------------------------------------
 Center     Atomic      Atomic             Coordinates (Angstroms)
 Number     Number       Type             X           Y           Z
 ---------------------------------------------------------------------
      1          7           0        0.689546   -0.895208    0.284660
      2          7           0       -0.677767   -0.897496    0.287831
      3          6           0        1.100993    0.338522   -0.078647
      4          6           0        0.001045    1.173771   -0.322294
      5          6           0       -1.094981    0.334857   -0.073608
      6          1           0        2.157165    0.568852   -0.148155
      7          1           0       -0.001380    2.210257   -0.626676
      8          1           0       -2.152219    0.561655   -0.138371
 ---------------------------------------------------------------------

 SCF Done:  E(RB3LYP) =  -225.793752963     A.U. after    1 cycles

 Alpha  occ. eigenvalues --  -14.27736 -14.27716 -10.14776 -10.14776 -10.12696
 Alpha  occ. eigenvalues --   -0.96244  -0.73565  -0.71611  -0.53980  -0.51542
 Alpha  occ. eigenvalues --   -0.47260  -0.38525  -0.37469  -0.35622  -0.27192
 Alpha  occ. eigenvalues --   -0.22126  -0.20882  -0.20723
 Alpha virt. eigenvalues --    0.01835   0.03798   0.04777   0.05505   0.05855
 Alpha virt. eigenvalues --    0.06767   0.06867   0.07410   0.09500   0.10655
 Alpha virt. eigenvalues --    0.12439   0.12628   0.13943   0.15735   0.17192

 Mulliken charges:
               1
     1  N   -0.343425
     2  N   -0.343423
     3  C   -0.206363
     4  C   -0.225278
     5  C   -0.206351
     6  H    0.108616
     7  H    0.107610
     8  H    0.108613
 Sum of Mulliken charges =  -1.00000

 Dipole moment (field-independent basis, Debye):
    X=             -0.0293    Y=              4.7012    Z=             -1.4908  Tot=              4.9320
 Quadrupole moment (field-independent basis, Debye-Ang):
   XX=            -34.5217   YY=            -40.3779   ZZ=            -36.0719
   XY=              0.0310   XZ=             -0.0114   YZ=              1.5151

  Exact polarizability:      85.730      -0.017      83.846      -0.051      -8.534      57.352
 Approx polarizability:      96.923      -0.022      95.058      -0.066     -11.103      60.560

 Summary of Natural Population Analysis:

                                       Natural Population
                Natural  -----------------------------------------------
    Atom  No    Charge         Core      Valence    Rydberg      Total
 -----------------------------------------------------------------------
      N    1   -0.45788      1.99951     5.41530    0.04307     7.45788
      N    2   -0.45787      1.99951     5.41529    0.04307     7.45787
      C    3   -0.11954      1.99928     4.08667    0.03358     6.11954
      C    4   -0.42022      1.99913     4.40033    0.02076     6.42022
      C    5   -0.11953      1.99928     4.08667    0.03358     6.11953
      H    6    0.18407      0.00000     0.81424    0.00169     0.81593
      H    7    0.20691      0.00000     0.79153    0.00156     0.79309
      H    8    0.18406      0.00000     0.81424    0.00169     0.81594
 =======================================================================
   * Total *   -1.00000      9.99672    25.82428    0.17901    36.00000

                      1                      2                      3
                      A                      A                      A
 Frequencies --    641.2957               699.8077               728.6387
 Red. masses --      3.2989                 8.8958                 1.1781
 Frc consts  --      0.7993                 2.5668                 0.3685
 IR Inten    --     28.9671                 0.0000               140.2949
 Raman Activ --      0.3341                 0.5200                17.4404

                      4                      5                      6
                      A                      A                      A
 Frequencies --    811.9789               841.6671               926.3407
 Red. masses --      1.2679                 1.3029                 3.1748
 Frc consts  --      0.4925                 0.5438                 1.6051
 IR Inten    --      0.0003                19.6371                 0.1982
 Raman Activ --     16.3129                 1.3057                 2.0944

                      7                      8                      9
                      A                      A                      A
 Frequencies --    933.5787              1023.8138              1039.2317
 Red. masses --      6.5995                 2.3988                 1.6032
 Frc consts  --      3.3889                 1.4814                 1.0201
 IR Inten    --      0.4941                83.9750                12.2949
 Raman Activ --      5.1042                 9.0671                 0.2874

                     10                     11                     12
                      A                      A                      A
 Frequencies --   1135.8675              1162.9118              1231.4160
 Red. masses --      2.6953                 1.8278                 6.1704
 Frc consts  --      2.0489                 1.4564                 5.5128
 IR Inten    --      5.9632                12.3390                 4.6598
 Raman Activ --     48.3855                 1.6079               107.7228

                     13                     14                     15
                      A                      A                      A
 Frequencies --   1365.6547              1413.4601              1483.5867
 Red. masses --      2.7686                 3.6546                 3.0852
 Frc consts  --      3.0422                 4.3019                 4.0009
 IR Inten    --     18.4908                 3.4349                37.2461
 Raman Activ --     45.3685                22.8424                17.4270

                     16                     17                     18
                      A                      A                      A
 Frequencies --   3179.3113              3181.0046              3222.2207
 Red. masses --      1.0898                 1.0932                 1.1026
 Frc consts  --      6.4901                 6.5172                 6.7449
 IR Inten    --      0.3119                75.1989                27.3369
 Raman Activ --    357.3171                51.2297               310.9136

 - Thermochemistry -
 -------------------
 Temperature   298.150 Kelvin.  Pressure   1.00000 Atm.
 Thermochemistry will use frequencies scaled by 0.9670.

 Molecular mass:    67.02962 amu.
 Principal axes and moments of inertia in atomic units:
                           1         2         3
     Eigenvalues --   183.48836 183.58162 367.06997
           X            0.00816   0.99997   0.00173
           Y            0.95938  -0.00831   0.28200
           Z           -0.28201   0.00064   0.95941
 This molecule is an asymmetric top.
 Rotational symmetry number  1.
 Rotational temperatures (Kelvin)      0.47204     0.47180     0.23596
 Rotational constants (GHZ):           9.83573     9.83073     4.91661
 Zero-point vibrational energy     144724.6 (Joules/Mol)
                                   34.59001 (Kcal/Mol)
 Warning -- explicit consideration of   1 degrees of freedom as
           vibrations may cause significant error
 Vibrational temperatures:    892.23   973.64  1013.75  1129.70  1171.01
          (Kelvin)           1288.82  1298.89  1424.43  1445.88  1580.33
                             1617.96  1713.27  1900.03  1966.54  2064.11
                             4423.37  4425.72  4483.07

 Zero-point correction=                           0.055123 (Hartree/Particle)
 Thermal correction to Energy=                    0.058768
 Thermal correction to Enthalpy=                  0.059712
 Thermal correction to Gibbs Free Energy=         0.028964
 Sum of electronic and zero-point Energies=           -225.738630
 Sum of electronic and thermal Energies=              -225.734985
 Sum of electronic and thermal Enthalpies=            -225.734041
 Sum of electronic and thermal Free Energies=         -225.764789

                     E (Thermal)             CV                S
                      KCal/Mol        Cal/Mol-Kelvin    Cal/Mol-Kelvin
 Total                   36.878             12.815             64.715
 Electronic               0.000              0.000              0.000
 Translational            0.889              2.981             38.526
 Rotational               0.889              2.981             24.029
 Vibrational             35.100              6.853              2.160
 Vibration     1          0.980              0.989              0.416

 Optimization completed.
    -- Stationary point found.
 Normal termination of Gaussian 16 at Fri Jun  2 11:13:01 2023.
