 Gaussian 16, Revision C.01,
 Gaussian 16:  ES64L-G16RevC.01  3-Jul-2019

 ----------------------------------------------------------------------
 #p freq=raman scale=0.967 pop=(nbo,full,hirshfeld) guess=read geom=all
 check b3lyp/6-311+G(d,p) int=grid=ultrafine EmpiricalDispersion=GD3BJ
 SCRF=(Solvent=ethanol) scf=(xqc,intrep,maxconventionalcycle=350) nosym
 m
 ----------------------------------------------------------------------

 Structure from the checkpoint file:  "/scratch1/svicchi/G09-659895.pbs02/02-freq/PDA-isolated-freq.chk"
 ----------------
 PDA-isolated.gjf
 ----------------
 Charge =  0 Multiplicity = 1

                          Input orientation:
 ---------------------------------------------------------------------
 Center     Atomic      Atomic             Coordinates (Angstroms)
 Number     Number       Type             X           Y           Z
 ---------------------------------------------------------------------
      1          6           0       -3.422600    0.803805    0.104753
      2          6           0       -2.131992    1.615879    0.043929
      3          6           0       -0.880930    0.741773   -0.064474
      4          1           0       -2.060370    2.242261    0.942422
      5          1           0       -2.182791    2.300206   -0.810473
      6          7           0       -4.597999    1.685611    0.203274
      7          1           0       -3.357220    0.088802    0.939043
      8          1           0       -3.523938    0.212923   -0.811258
      9          1           0       -4.575744    2.189910    1.085794
     10          1           0       -5.449803    1.132553    0.216100
     11          6           0        0.414227    1.554005   -0.125603
     12          1           0       -0.957324    0.110337   -0.958305
     13          1           0       -0.838964    0.058364    0.792661
     14          6           0        1.660987    0.680517   -0.232357
     15          7           0        2.880879    1.504220   -0.280680
     16          1           0        1.561029    0.018230   -1.105817
     17          1           0        1.728761    0.034286    0.648732
     18          1           0        0.498951    2.186259    0.765428
     19          1           0        0.377157    2.232124   -0.987904
     20          1           0        2.886533    2.059554   -1.132289
     21          1           0        3.702804    0.909270   -0.326734
 ---------------------------------------------------------------------

 SCF Done:  E(RB3LYP) =  -308.593506658     A.U. after    1 cycles

 Alpha  occ. eigenvalues --  -14.29549 -14.29547 -10.18974 -10.18974 -10.16384
 Alpha  occ. eigenvalues --  -10.16205 -10.16203  -0.88417  -0.88278  -0.79347
 Alpha  occ. eigenvalues --   -0.72809  -0.65016  -0.59236  -0.58190  -0.49434
 Alpha  occ. eigenvalues --   -0.49033  -0.47542  -0.45171  -0.44996  -0.42085
 Alpha  occ. eigenvalues --   -0.39216  -0.39152  -0.36346  -0.34492  -0.33444
 Alpha  occ. eigenvalues --   -0.32829  -0.32566  -0.25026  -0.24880
 Alpha virt. eigenvalues --    0.00418   0.00795   0.02050   0.02896   0.03018
 Alpha virt. eigenvalues --    0.04538   0.05553   0.06091   0.06280   0.07202
 Alpha virt. eigenvalues --    0.08234   0.08978   0.10002   0.10038   0.10649

 Mulliken charges:
               1
     1  C   -0.333240
     2  C   -0.254863
     3  C   -0.120910
     4  H    0.133083
     5  H    0.142357
     6  N   -0.510693
     7  H    0.129501
     8  H    0.139443
     9  H    0.228099
    10  H    0.247477
    11  C   -0.254733
    12  H    0.139221
    13  H    0.139187
    14  C   -0.333197
    15  N   -0.510614
    16  H    0.129493
    17  H    0.139401
    18  H    0.142261
    19  H    0.133157
    20  H    0.228137
    21  H    0.247433
 Sum of Mulliken charges =  -0.00000

 Dipole moment (field-independent basis, Debye):
    X=             -0.0585    Y=             -2.2500    Z=             -0.0661  Tot=              2.2517
 Quadrupole moment (field-independent basis, Debye-Ang):
   XX=            -46.0913   YY=            -54.6736   ZZ=            -45.3090
   XY=              2.1301   XZ=            -10.9670   YZ=              0.2079

  Exact polarizability:     111.498      -0.262     100.838      -0.730       0.230      93.363
 Approx polarizability:     105.484       0.038     107.470       0.446       0.106     103.372

 Summary of Natural Population Analysis:

                                       Natural Population
                Natural  -----------------------------------------------
    Atom  No    Charge         Core      Valence    Rydberg      Total
 -----------------------------------------------------------------------
      C    1   -0.17919      1.99930     4.16191    0.01798     6.17919
      C    2   -0.38942      1.99928     4.37372    0.01642     6.38942
      C    3   -0.38312      1.99927     4.36880    0.01504     6.38312
      H    4    0.18971      0.00000     0.80796    0.00233     0.81029
      H    5    0.19481      0.00000     0.80247    0.00271     0.80519
      N    6   -0.87257      1.99954     5.85126    0.02177     7.87257
      H    7    0.16079      0.00000     0.83637    0.00283     0.83921
      H    8    0.18118      0.00000     0.81654    0.00228     0.81882
      H    9    0.35408      0.00000     0.64304    0.00287     0.64592
      H   10    0.36024      0.00000     0.63741    0.00235     0.63976
      C   11   -0.38941      1.99928     4.37372    0.01641     6.38941
      H   12    0.19193      0.00000     0.80539    0.00267     0.80807
      H   13    0.19192      0.00000     0.80540    0.00268     0.80808
      C   14   -0.17917      1.99930     4.16190    0.01797     6.17917
      N   15   -0.87255      1.99954     5.85124    0.02177     7.87255
      H   16    0.16080      0.00000     0.83637    0.00283     0.83920
      H   17    0.18114      0.00000     0.81658    0.00228     0.81886
      H   18    0.19479      0.00000     0.80249    0.00272     0.80521
      H   19    0.18974      0.00000     0.80792    0.00233     0.81026
      H   20    0.35409      0.00000     0.64303    0.00288     0.64591
      H   21    0.36021      0.00000     0.63744    0.00235     0.63979
 =======================================================================
   * Total *   -0.00000     13.99552    43.84101    0.16348    58.00000

                      1                      2                      3
                      A                      A                      A
 Frequencies --     62.3910                74.2631               103.2095
 Red. masses --      3.1993                 1.7022                 3.5545
 Frc consts  --      0.0073                 0.0055                 0.0223
 IR Inten    --      2.6051                15.1993                 0.0210
 Raman Activ --      0.0132                 0.4426                 0.1657

                      4                      5                      6
                      A                      A                      A
 Frequencies --    142.8659               145.7266               234.7747
 Red. masses --      2.4142                 1.8588                 1.3740
 Frc consts  --      0.0290                 0.0233                 0.0446
 IR Inten    --      0.0063                 4.8313                40.5003
 Raman Activ --      0.0047                 0.0028                 0.0399

                      7                      8                      9
                      A                      A                      A
 Frequencies --    245.6905               278.8705               312.4123
 Red. masses --      1.1486                 2.0278                 4.0676
 Frc consts  --      0.0408                 0.0929                 0.2339
 IR Inten    --     45.0563                62.7509                 2.2330
 Raman Activ --      0.9242                 0.0523                 7.4077

                     10                     11                     12
                      A                      A                      A
 Frequencies --    450.8413               509.3654               741.5242
 Red. masses --      2.8527                 3.4651                 1.0672
 Frc consts  --      0.3416                 0.5297                 0.3457
 IR Inten    --      0.0017                24.4531                 6.0229
 Raman Activ --      0.4558                 0.0510                 0.0015

                     13                     14                     15
                      A                      A                      A
 Frequencies --    771.7761               831.0073               866.4307
 Red. masses --      1.1042                 1.1586                 1.2452
 Frc consts  --      0.3875                 0.4714                 0.5508
 IR Inten    --      9.6771                60.4015               192.8471
 Raman Activ --      0.4555                 1.5801                 7.2415

                     16                     17                     18
                      A                      A                      A
 Frequencies --    892.8245               953.6883               973.7269
 Red. masses --      1.2975                 2.7316                 1.3370
 Frc consts  --      0.6094                 1.4638                 0.7469
 IR Inten    --    120.7300                 8.8062                 8.4871
 Raman Activ --      3.2446                 0.2377                 7.9454

                     19                     20                     21
                      A                      A                      A
 Frequencies --    996.6810              1041.3638              1061.5037
 Red. masses --      3.1486                 1.8980                 2.8741
 Frc consts  --      1.8428                 1.2127                 1.9081
 IR Inten    --      8.6175                 2.6625                14.9546
 Raman Activ --      6.2640                10.3360                 1.0794

                     22                     23                     24
                      A                      A                      A
 Frequencies --   1070.5644              1084.1331              1123.1144
 Red. masses --      2.2872                 2.6717                 1.4619
 Frc consts  --      1.5445                 1.8501                 1.0865
 IR Inten    --     22.8976                 0.9967                17.6390
 Raman Activ --     23.1487                11.7665                 6.7872

                     25                     26                     27
                      A                      A                      A
 Frequencies --   1167.5615              1211.7632              1264.7947
 Red. masses --      1.5760                 1.5163                 1.3008
 Frc consts  --      1.2658                 1.3118                 1.2260
 IR Inten    --      8.3837                 3.4003                 1.7132
 Raman Activ --      2.8272                 4.7239                 1.1326

                     28                     29                     30
                      A                      A                      A
 Frequencies --   1268.2190              1319.6408              1324.5625
 Red. masses --      1.4177                 1.2835                 1.0399
 Frc consts  --      1.3434                 1.3170                 1.0749
 IR Inten    --      0.0776                 2.8361                 0.4862
 Raman Activ --      3.1319                 0.0384                58.6598

                     31                     32                     33
                      A                      A                      A
 Frequencies --   1327.0982              1333.6721              1356.1269
 Red. masses --      1.1771                 1.0856                 1.3225
 Frc consts  --      1.2214                 1.1377                 1.4330
 IR Inten    --      0.1612                 3.8844                 0.2888
 Raman Activ --      2.0729                 1.2777                 0.8092

                     34                     35                     36
                      A                      A                      A
 Frequencies --   1396.1828              1422.9885              1426.4515
 Red. masses --      1.5312                 1.4891                 1.4741
 Frc consts  --      1.7586                 1.7765                 1.7672
 IR Inten    --      1.2410                29.7442                 3.8345
 Raman Activ --      1.8293                 0.8316                 1.7165

                     37                     38                     39
                      A                      A                      A
 Frequencies --   1475.6549              1482.4026              1497.3857
 Red. masses --      1.0753                 1.0846                 1.0921
 Frc consts  --      1.3796                 1.4042                 1.4427
 IR Inten    --      0.2533                 0.0406                 4.1082
 Raman Activ --     58.8012                 0.0376                12.6032

                     40                     41                     42
                      A                      A                      A
 Frequencies --   1512.7764              1515.8268              1646.2453
 Red. masses --      1.0902                 1.0935                 1.0873
 Frc consts  --      1.4700                 1.4803                 1.7362
 IR Inten    --      4.2675                 6.1888                94.8025
 Raman Activ --      0.1001                11.6637                 1.6275

                     43                     44                     45
                      A                      A                      A
 Frequencies --   1646.4056              2954.5047              2954.5617
 Red. masses --      1.0874                 1.0721                 1.0721
 Frc consts  --      1.7366                 5.5140                 5.5139
 IR Inten    --      5.6128               136.0434                86.8323
 Raman Activ --      7.9765               321.2104               231.8950

                     46                     47                     48
                      A                      A                      A
 Frequencies --   2998.0522              2998.5024              3005.0366
 Red. masses --      1.0586                 1.0633                 1.0635
 Frc consts  --      5.6060                 5.6325                 5.6581
 IR Inten    --      1.8626                 4.1663               153.2599
 Raman Activ --    707.7831               111.3912                85.9646

                     49                     50                     51
                      A                      A                      A
 Frequencies --   3020.1451              3031.6553              3037.0592
 Red. masses --      1.0948                 1.0883                 1.0909
 Frc consts  --      5.8838                 5.8934                 5.9287
 IR Inten    --      1.9353                80.8218                 1.5498
 Raman Activ --    398.2194                 8.5674               150.2404

                     52                     53                     54
                      A                      A                      A
 Frequencies --   3049.7019              3057.3065              3486.5654
 Red. masses --      1.0990                 1.1031                 1.0505
 Frc consts  --      6.0222                 6.0749                 7.5240
 IR Inten    --      6.6638               289.0540                 0.1373
 Raman Activ --    121.9005                 1.6930               217.0946

                     55                     56                     57
                      A                      A                      A
 Frequencies --   3486.6082              3559.0538              3559.1948
 Red. masses --      1.0505                 1.0923                 1.0923
 Frc consts  --      7.5243                 8.1516                 8.1522
 IR Inten    --      0.1100                 2.3939                 2.3603
 Raman Activ --    281.4328               132.9580               133.9786

 - Thermochemistry -
 -------------------
 Temperature   298.150 Kelvin.  Pressure   1.00000 Atm.
 Thermochemistry will use frequencies scaled by 0.9670.

 Molecular mass:   102.11570 amu.
 Principal axes and moments of inertia in atomic units:
                           1         2         3
     Eigenvalues --   136.888722506.712282577.56145
           X            0.99697   0.02609   0.07322
           Y           -0.02392   0.99925  -0.03039
           Z           -0.07395   0.02854   0.99685
 This molecule is an asymmetric top.
 Rotational symmetry number  1.
 Rotational temperatures (Kelvin)      0.63273     0.03455     0.03360
 Rotational constants (GHZ):          13.18400     0.71996     0.70017
 Zero-point vibrational energy     496045.3 (Joules/Mol)
                                  118.55767 (Kcal/Mol)
 Warning -- explicit consideration of  11 degrees of freedom as
           vibrations may cause significant error
 Vibrational temperatures:     86.80   103.32   143.60   198.77   202.75
          (Kelvin)            326.64   341.83   387.99   434.66   627.25
                              708.68  1031.68  1073.77  1156.18  1205.46
                             1242.18  1326.86  1354.74  1386.68  1448.85
                             1476.87  1489.47  1508.35  1562.59  1624.43
                             1685.92  1759.71  1764.47  1836.01  1842.86
                             1846.39  1855.53  1886.78  1942.51  1979.80
                             1984.62  2053.07  2062.46  2083.31  2104.72
                             2108.97  2290.42  2290.64  4110.59  4110.67
                             4171.18  4171.81  4180.90  4201.92  4217.93
                             4225.45  4243.04  4253.62  4850.85  4850.91
                             4951.70  4951.90

 Zero-point correction=                           0.188934 (Hartree/Particle)
 Thermal correction to Energy=                    0.198732
 Thermal correction to Enthalpy=                  0.199677
 Thermal correction to Gibbs Free Energy=         0.153952
 Sum of electronic and zero-point Energies=           -308.404573
 Sum of electronic and thermal Energies=              -308.394774
 Sum of electronic and thermal Enthalpies=            -308.393830
 Sum of electronic and thermal Free Energies=         -308.439554

                     E (Thermal)             CV                S
                      KCal/Mol        Cal/Mol-Kelvin    Cal/Mol-Kelvin
 Total                  124.707             34.203             96.235
 Electronic               0.000              0.000              0.000
 Translational            0.889              2.981             39.780
 Rotational               0.889              2.981             28.272
 Vibrational            122.929             28.242             28.183
 Vibration     1          0.597              1.973              4.446
 Vibration     2          0.598              1.967              4.103
 Vibration     3          0.604              1.949              3.458
 Vibration     4          0.614              1.915              2.829
 Vibration     5          0.615              1.912              2.791
 Vibration     6          0.651              1.800              1.902
 Vibration     7          0.656              1.783              1.821
 Vibration     8          0.674              1.729              1.598
 Vibration     9          0.694              1.670              1.405
 Vibration    10          0.796              1.392              0.839
 Vibration    11          0.848              1.267              0.677

 Optimization completed.
    -- Stationary point found.
 Normal termination of Gaussian 16 at Fri Jun  2 12:00:48 2023.
