 Gaussian 16, Revision C.02,
 Gaussian 16:  ES64L-G16RevC.02  7-Dec-2021

 ----------------------------------------------------------------------
 #p freq=raman scale=0.967 guess=read geom=allcheck b3lyp/6-311+G(d,p)
 int=grid=ultrafine EmpiricalDispersion=GD3BJ SCRF=(Solvent=ethanol) sc
 f=(xqc,intrep,maxconventionalcycle=350) nosymm
 ----------------------------------------------------------------------

 Structure from the checkpoint file:  "/scratch1/svicchi/G09-1734025.pbs02/02-freq/PyrCHOCH3-CO2_binding-site_index-5-freq.chk"
 ----------------------------------
 PyrCHOCH3-CO2_binding-site_index-5
 ----------------------------------
 Charge = -1 Multiplicity = 1

                          Input orientation:
 ---------------------------------------------------------------------
 Center     Atomic      Atomic             Coordinates (Angstroms)
 Number     Number       Type             X           Y           Z
 ---------------------------------------------------------------------
      1          6           0       -0.476432    0.794687    0.079321
      2          6           0       -1.199879   -0.246828   -0.472749
      3          6           0       -0.317267   -1.347082   -0.581658
      4          1           0       -2.239117   -0.213679   -0.761611
      5          6           0        0.926188   -0.945794   -0.103361
      6          7           0        0.811749    0.383563    0.294806
      7          1           0       -0.777697    1.783967    0.379510
      8          6           0        2.165298   -1.711954   -0.252004
      9          1           0       -0.523261   -2.310906   -1.021010
     10          8           0        2.129497   -2.943039   -0.237696
     11          6           0        3.471507   -1.007501   -0.551349
     12          1           0        3.344752    0.045499   -0.794962
     13          1           0        3.942283   -1.526636   -1.389661
     14          1           0        4.130381   -1.083823    0.314803
     15          6           0        1.749643    1.157580    1.174236
     16          8           0        1.554491    2.382946    1.159837
     17          8           0        2.562422    0.460759    1.797916
 ---------------------------------------------------------------------

 SCF Done:  E(RB3LYP) =  -551.142873528     A.U. after    1 cycles

 Alpha  occ. eigenvalues --  -19.10433 -19.07075 -19.07073 -14.35637 -10.29094
 Alpha  occ. eigenvalues --  -10.26195 -10.19763 -10.19651 -10.16983 -10.16268
 Alpha  occ. eigenvalues --  -10.16102  -1.05461  -1.03535  -0.96749  -0.96104
 Alpha  occ. eigenvalues --   -0.78019  -0.75850  -0.71633  -0.61309  -0.59710
 Alpha  occ. eigenvalues --   -0.57451  -0.49673  -0.47848  -0.45604  -0.45019
 Alpha  occ. eigenvalues --   -0.43823  -0.43304  -0.42752  -0.41859  -0.39372
 Alpha  occ. eigenvalues --   -0.39269  -0.37783  -0.37523  -0.35056  -0.27629
 Alpha  occ. eigenvalues --   -0.26411  -0.26097  -0.25721  -0.24271  -0.22461
 Alpha virt. eigenvalues --   -0.04954   0.00956   0.02214   0.02726   0.03226
 Alpha virt. eigenvalues --    0.04295   0.04814   0.05110   0.05599   0.05951
 Alpha virt. eigenvalues --    0.07126   0.07263   0.07969   0.08304   0.08782

 Mulliken charges:
               1
     1  C    0.053119
     2  C   -0.425268
     3  C   -0.044961
     4  H    0.138263
     5  C    0.053528
     6  N    0.078986
     7  H    0.154333
     8  C   -0.005347
     9  H    0.139976
    10  O   -0.399256
    11  C   -0.528797
    12  H    0.157277
    13  H    0.164070
    14  H    0.192940
    15  C    0.279822
    16  O   -0.516139
    17  O   -0.492546
 Sum of Mulliken charges =  -1.00000

 Dipole moment (field-independent basis, Debye):
    X=             -9.7964    Y=             -0.8370    Z=             -6.2188  Tot=             11.6337
 Quadrupole moment (field-independent basis, Debye-Ang):
   XX=            -83.8898   YY=            -98.2398   ZZ=            -77.6268
   XY=             -1.7154   XZ=            -14.7166   YZ=             -7.2604

  Exact polarizability:     165.638     -18.854     163.828      15.262      14.278      98.837
 Approx polarizability:     181.776     -25.946     193.232      19.364      11.445     109.991

                      1                      2                      3
                      A                      A                      A
 Frequencies --     35.0457                78.9825               133.1306
 Red. masses --      4.8443                 7.5214                 1.1297
 Frc consts  --      0.0035                 0.0276                 0.0118
 IR Inten    --     11.0567                 4.3410                 1.6526
 Raman Activ --      0.8940                 3.7110                 3.7977

                      4                      5                      6
                      A                      A                      A
 Frequencies --    151.8613               159.4377               194.8021
 Red. masses --      4.4795                 5.6858                 5.5431
 Frc consts  --      0.0609                 0.0852                 0.1239
 IR Inten    --      3.6615                 0.8659                18.4406
 Raman Activ --      3.9791                 4.2987                 2.0482

                      7                      8                      9
                      A                      A                      A
 Frequencies --    256.0717               360.6173               409.1516
 Red. masses --      5.2017                 5.2018                 9.5173
 Frc consts  --      0.2010                 0.3986                 0.9387
 IR Inten    --      1.3285                 5.0921                 5.3483
 Raman Activ --      1.8014                 1.2874                10.6371

                     10                     11                     12
                      A                      A                      A
 Frequencies --    442.2120               582.8471               604.5974
 Red. masses --      5.7828                 3.4129                 3.9438
 Frc consts  --      0.6663                 0.6831                 0.8494
 IR Inten    --      2.1109                 3.3132                24.7890
 Raman Activ --      5.7090                 2.1581                 2.4156

                     13                     14                     15
                      A                      A                      A
 Frequencies --    616.5850               633.2647               696.0599
 Red. masses --      4.0776                 3.1949                 4.2777
 Frc consts  --      0.9134                 0.7549                 1.2211
 IR Inten    --     28.6014                10.1504                25.4803
 Raman Activ --      8.0766                11.0015                 8.8380

                     16                     17                     18
                      A                      A                      A
 Frequencies --    750.7459               763.4330               799.5224
 Red. masses --      1.2178                11.6698                 6.6669
 Frc consts  --      0.4044                 4.0073                 2.5109
 IR Inten    --    127.3059               330.4021                32.5392
 Raman Activ --     19.3238                30.8596                 4.0001

                     19                     20                     21
                      A                      A                      A
 Frequencies --    849.5256               899.9122               908.1294
 Red. masses --      1.5214                 1.4221                 4.6490
 Frc consts  --      0.6469                 0.6785                 2.2590
 IR Inten    --      8.2455                 3.9042                 0.7623
 Raman Activ --      9.6496                 6.0356                19.6368

                     22                     23                     24
                      A                      A                      A
 Frequencies --    990.4241              1015.7337              1035.8782
 Red. masses --      2.3439                 1.4568                 1.7614
 Frc consts  --      1.3547                 0.8855                 1.1136
 IR Inten    --     95.4903                16.1362                30.1050
 Raman Activ --     16.3856                24.9963                 3.3767

                     25                     26                     27
                      A                      A                      A
 Frequencies --   1063.2887              1092.0701              1186.1487
 Red. masses --      1.5169                 2.0185                 3.0558
 Frc consts  --      1.0104                 1.4184                 2.5331
 IR Inten    --    163.3336                44.2519                16.7579
 Raman Activ --     11.6053                 7.8639                77.7541

                     28                     29                     30
                      A                      A                      A
 Frequencies --   1198.1416              1276.5549              1321.0127
 Red. masses --      2.5408                 3.9919                 4.8441
 Frc consts  --      2.1490                 3.8328                 4.9805
 IR Inten    --    477.6217               710.3182                42.1327
 Raman Activ --     45.6017                55.1307                28.3239

                     31                     32                     33
                      A                      A                      A
 Frequencies --   1367.6718              1378.5177              1431.6035
 Red. masses --      9.9581                 1.2217                 3.4015
 Frc consts  --     10.9747                 1.3678                 4.1074
 IR Inten    --     69.6365                23.9173               208.5746
 Raman Activ --      1.9573                12.3448               547.3791

                     34                     35                     36
                      A                      A                      A
 Frequencies --   1446.0600              1462.1689              1476.6407
 Red. masses --      1.9759                 1.3244                 1.2718
 Frc consts  --      2.4344                 1.6682                 1.6338
 IR Inten    --    112.1599                39.7430                57.9596
 Raman Activ --     61.0004               133.7782               121.5902

                     37                     38                     39
                      A                      A                      A
 Frequencies --   1546.9634              1655.9988              1717.1531
 Red. masses --      4.7846                10.8596                12.7460
 Frc consts  --      6.7461                17.5462                22.1432
 IR Inten    --    191.2286               601.6630              1050.6777
 Raman Activ --     41.7742               343.6987                13.7693

                     40                     41                     42
                      A                      A                      A
 Frequencies --   3047.8347              3115.4703              3142.9703
 Red. masses --      1.0369                 1.0993                 1.1023
 Frc consts  --      5.6750                 6.2863                 6.4156
 IR Inten    --     13.2573                12.6864                24.5861
 Raman Activ --    455.0649               185.4344                89.6781

                     43                     44                     45
                      A                      A                      A
 Frequencies --   3228.6940              3243.1274              3270.6024
 Red. masses --      1.0909                 1.0989                 1.1000
 Frc consts  --      6.7000                 6.8100                 6.9329
 IR Inten    --      6.6532                 5.3172                 2.8569
 Raman Activ --    190.3324               244.3514               240.2412

 - Thermochemistry -
 -------------------
 Temperature   298.150 Kelvin.  Pressure   1.00000 Atm.
 Thermochemistry will use frequencies scaled by 0.9670.

 Molecular mass:   152.03477 amu.
 Principal axes and moments of inertia in atomic units:
                           1         2         3
     Eigenvalues --  1195.437551537.883332514.48204
           X           -0.23764   0.94243  -0.23526
           Y            0.90985   0.13115  -0.39367
           Z            0.34016   0.30760   0.88864
 This molecule is an asymmetric top.
 Rotational symmetry number  1.
 Warning -- assumption of classical behavior for rotation
           may cause significant error
 Rotational temperatures (Kelvin)      0.07245     0.05632     0.03445
 Rotational constants (GHZ):           1.50969     1.17352     0.71774
 Zero-point vibrational energy     306761.1 (Joules/Mol)
                                   73.31767 (Kcal/Mol)
 Warning -- explicit consideration of  14 degrees of freedom as
           vibrations may cause significant error
 Vibrational temperatures:     48.76   109.89   185.22   211.28   221.83
          (Kelvin)            271.03   356.27   501.73   569.25   615.25
                              810.91   841.17   857.85   881.06   968.43
                             1044.51  1062.16  1112.37  1181.94  1252.05
                             1263.48  1377.97  1413.19  1441.21  1479.35
                             1519.39  1650.29  1666.97  1776.07  1837.92
                             1902.84  1917.93  1991.79  2011.90  2034.31
                             2054.45  2152.29  2303.99  2389.07  4240.44
                             4334.55  4372.81  4492.07  4512.15  4550.38

 Zero-point correction=                           0.116839 (Hartree/Particle)
 Thermal correction to Energy=                    0.126893
 Thermal correction to Enthalpy=                  0.127838
 Thermal correction to Gibbs Free Energy=         0.080315
 Sum of electronic and zero-point Energies=           -551.026034
 Sum of electronic and thermal Energies=              -551.015980
 Sum of electronic and thermal Enthalpies=            -551.015036
 Sum of electronic and thermal Free Energies=         -551.062558

                     E (Thermal)             CV                S
                      KCal/Mol        Cal/Mol-Kelvin    Cal/Mol-Kelvin
 Total                   79.627             36.293            100.019
 Electronic               0.000              0.000              0.000
 Translational            0.889              2.981             40.967
 Rotational               0.889              2.981             29.915
 Vibrational             77.849             30.331             29.138
 Vibration     1          0.594              1.983              5.588
 Vibration     2          0.599              1.965              3.982
 Vibration     3          0.611              1.925              2.965
 Vibration     4          0.617              1.906              2.713
 Vibration     5          0.620              1.898              2.620
 Vibration     6          0.633              1.856              2.244
 Vibration     7          0.661              1.767              1.747
 Vibration     8          0.726              1.578              1.172
 Vibration     9          0.762              1.479              0.979
 Vibration    10          0.789              1.410              0.866
 Vibration    11          0.919              1.110              0.517
 Vibration    12          0.942              1.065              0.477
 Vibration    13          0.954              1.040              0.456
 Vibration    14          0.972              1.006              0.429

 Optimization completed.
    -- Stationary point found.
 Normal termination of Gaussian 16 at Thu Dec 14 13:13:44 2023.
