 Gaussian 16, Revision C.01,
 Gaussian 16:  ES64L-G16RevC.01  3-Jul-2019

 ----------------------------------------------------------------------
 #p freq=raman scale=0.967 pop=(nbo,full,hirshfeld) guess=read geom=all
 check b3lyp/6-311+G(d,p) int=grid=ultrafine EmpiricalDispersion=GD3BJ
 SCRF=(Solvent=ethanol) scf=(xqc,intrep,maxconventionalcycle=350) nosym
 m
 ----------------------------------------------------------------------

 Structure from the checkpoint file:  "/scratch1/svicchi/G09-659902.pbs02/02-freq/TDA-CO2_binding_direct-site_index-10-freq.chk"
 ----------------------------------------
 TDA-CO2_binding_direct-site_index-10.gjf
 ----------------------------------------
 Charge =  0 Multiplicity = 1

                          Input orientation:
 ---------------------------------------------------------------------
 Center     Atomic      Atomic             Coordinates (Angstroms)
 Number     Number       Type             X           Y           Z
 ---------------------------------------------------------------------
      1          6           0       -3.636826    0.835389    0.244056
      2          6           0       -2.484760    1.649429   -0.338124
      3          6           0       -1.196964    0.840523   -0.462085
      4          1           0       -2.298248    2.523437    0.296429
      5          1           0       -2.778653    2.028860   -1.323787
      6          7           0       -4.857508    1.652368    0.342243
      7          1           0       -3.326700    0.416783    1.213493
      8          1           0       -3.854709   -0.012752   -0.412473
      9          1           0       -4.715870    2.403171    1.012861
     10          1           0       -5.623822    1.092173    0.703368
     11          7           0       -0.109946    1.671635   -1.002428
     12          1           0       -1.390052   -0.054591   -1.071754
     13          1           0       -0.886007    0.492955    0.527671
     14          1           0        0.737950    1.120651   -1.098958
     15          1           0       -0.348085    1.993137   -1.936895
     16          6           0        0.501568    3.581908    0.922374
     17          8           0        0.284479    2.811025    1.764396
     18          8           0        0.741669    4.421518    0.155938
 ---------------------------------------------------------------------

 SCF Done:  E(RB3LYP) =  -418.590981871     A.U. after    1 cycles

 Alpha  occ. eigenvalues --  -19.19563 -19.19548 -14.29807 -14.29668 -10.35561
 Alpha  occ. eigenvalues --  -10.19236 -10.19220 -10.16421  -1.15726  -1.11816
 Alpha  occ. eigenvalues --   -0.89060  -0.88084  -0.75545  -0.64610  -0.59064
 Alpha  occ. eigenvalues --   -0.56141  -0.52019  -0.51310  -0.51182  -0.50231
 Alpha  occ. eigenvalues --   -0.47466  -0.47028  -0.46253  -0.41405  -0.39786
 Alpha  occ. eigenvalues --   -0.36976  -0.36788  -0.35522  -0.35184  -0.33882
 Alpha  occ. eigenvalues --   -0.25333  -0.25054
 Alpha virt. eigenvalues --   -0.00626   0.00780   0.01651   0.02525   0.03220
 Alpha virt. eigenvalues --    0.03668   0.04216   0.04436   0.05621   0.06622
 Alpha virt. eigenvalues --    0.06936   0.08412   0.08662   0.09540   0.10837

 Mulliken charges:
               1
     1  C   -0.332552
     2  C   -0.084418
     3  C   -0.354881
     4  H    0.124261
     5  H    0.132451
     6  N   -0.511187
     7  H    0.129982
     8  H    0.141007
     9  H    0.228272
    10  H    0.249081
    11  N   -0.498918
    12  H    0.131254
    13  H    0.154248
    14  H    0.252405
    15  H    0.230197
    16  C    0.496527
    17  O   -0.236355
    18  O   -0.251374
 Sum of Mulliken charges =  -0.00000

 Dipole moment (field-independent basis, Debye):
    X=              0.0009    Y=             -2.4523    Z=              0.1950  Tot=              2.4600
 Quadrupole moment (field-independent basis, Debye-Ang):
   XX=            -50.5900   YY=            -60.3016   ZZ=            -48.0609
   XY=              2.3406   XZ=             -7.8622   YZ=              3.2133

  Exact polarizability:      88.446       4.017      93.819      -3.793      -7.848      89.328
 Approx polarizability:      88.267       5.388     105.992      -4.054     -15.524     103.001

 Summary of Natural Population Analysis:

                                       Natural Population
                Natural  -----------------------------------------------
    Atom  No    Charge         Core      Valence    Rydberg      Total
 -----------------------------------------------------------------------
      C    1   -0.18134      1.99930     4.16404    0.01799     6.18134
      C    2   -0.40239      1.99927     4.38559    0.01752     6.40239
      C    3   -0.18270      1.99930     4.16574    0.01766     6.18270
      H    4    0.19389      0.00000     0.80350    0.00261     0.80611
      H    5    0.19521      0.00000     0.80215    0.00264     0.80479
      N    6   -0.87136      1.99954     5.85007    0.02174     7.87136
      H    7    0.16266      0.00000     0.83448    0.00286     0.83734
      H    8    0.18300      0.00000     0.81458    0.00242     0.81700
      H    9    0.35477      0.00000     0.64237    0.00286     0.64523
      H   10    0.36088      0.00000     0.63678    0.00234     0.63912
      N   11   -0.86529      1.99954     5.84468    0.02107     7.86529
      H   12    0.16504      0.00000     0.83230    0.00266     0.83496
      H   13    0.18627      0.00000     0.81132    0.00241     0.81373
      H   14    0.36362      0.00000     0.63423    0.00215     0.63638
      H   15    0.35814      0.00000     0.63927    0.00259     0.64186
      C   16    1.02645      1.99972     2.92114    0.05268     4.97355
      O   17   -0.52405      1.99971     6.51024    0.01410     8.52405
      O   18   -0.52281      1.99971     6.50928    0.01383     8.52281
 =======================================================================
   * Total *    0.00000     15.99609    47.80176    0.20215    64.00000

                      1                      2                      3
                      A                      A                      A
 Frequencies --     21.6771                39.6343                54.0422
 Red. masses --     11.0205                 6.5233                 1.9272
 Frc consts  --      0.0031                 0.0060                 0.0033
 IR Inten    --      0.0972                 0.2250                 7.6148
 Raman Activ --      3.4891                 0.4309                 0.2906

                      4                      5                      6
                      A                      A                      A
 Frequencies --     94.0582               114.6571               126.2177
 Red. masses --      4.8145                 2.8086                 2.7162
 Frc consts  --      0.0251                 0.0218                 0.0255
 IR Inten    --      4.9493                 9.1628                 4.8681
 Raman Activ --      1.3274                 3.0319                 0.3678

                      7                      8                      9
                      A                      A                      A
 Frequencies --    177.7264               185.0519               250.9545
 Red. masses --      3.4944                 2.4688                 1.1427
 Frc consts  --      0.0650                 0.0498                 0.0424
 IR Inten    --      1.8066                 3.5642                75.8910
 Raman Activ --      3.6370                 0.4184                 0.3400

                     10                     11                     12
                      A                      A                      A
 Frequencies --    297.5316               415.1245               455.3579
 Red. masses --      1.2115                 4.4427                 2.8014
 Frc consts  --      0.0632                 0.4511                 0.3422
 IR Inten    --     43.3691                 0.1452                33.0157
 Raman Activ --      0.1406                 5.9511                 0.0862

                     13                     14                     15
                      A                      A                      A
 Frequencies --    598.0425               664.2958               765.7024
 Red. masses --     12.7420                12.6558                 1.0772
 Frc consts  --      2.6850                 3.2905                 0.3721
 IR Inten    --    139.4026                46.9401                 7.8927
 Raman Activ --     37.3426                 0.0769                 0.2847

                     16                     17                     18
                      A                      A                      A
 Frequencies --    838.9362               876.6323               913.0460
 Red. masses --      1.1564                 1.2583                 1.3480
 Frc consts  --      0.4795                 0.5697                 0.6621
 IR Inten    --    116.4496               181.7518                62.3608
 Raman Activ --      4.1720                 5.4436                 9.2711

                     19                     20                     21
                      A                      A                      A
 Frequencies --    984.5832               988.5888              1061.6494
 Red. masses --      2.9768                 1.9019                 2.0192
 Frc consts  --      1.7002                 1.0952                 1.3409
 IR Inten    --     10.4583                22.7607                24.3036
 Raman Activ --      0.6234                12.4621                11.3222

                     22                     23                     24
                      A                      A                      A
 Frequencies --   1082.5467              1110.1983              1183.4878
 Red. masses --      3.2117                 1.5405                 1.4279
 Frc consts  --      2.2176                 1.1187                 1.1784
 IR Inten    --      1.6468                21.3043                 9.1772
 Raman Activ --      8.2741                 8.0169                 1.8854

                     25                     26                     27
                      A                      A                      A
 Frequencies --   1217.8076              1302.5018              1313.4949
 Red. masses --      1.4921                 1.3290                 1.2261
 Frc consts  --      1.3038                 1.3285                 1.2463
 IR Inten    --      5.7488                 0.9004                 2.4678
 Raman Activ --      3.8222                 4.0884                 2.1192

                     28                     29                     30
                      A                      A                      A
 Frequencies --   1328.2485              1352.0487              1364.8849
 Red. masses --      1.0570                 1.2645                15.3245
 Frc consts  --      1.0987                 1.3619                16.8202
 IR Inten    --      1.1599                 2.1202                 6.8964
 Raman Activ --     38.4275                 0.7680                57.4470

                     31                     32                     33
                      A                      A                      A
 Frequencies --   1424.8234              1430.7366              1482.3871
 Red. masses --      1.3811                 1.5368                 1.0839
 Frc consts  --      1.6519                 1.8535                 1.4033
 IR Inten    --      2.6441                30.2235                 1.0512
 Raman Activ --      2.6386                 0.7172                34.7736

                     34                     35                     36
                      A                      A                      A
 Frequencies --   1507.0324              1517.5282              1644.1430
 Red. masses --      1.0844                 1.0916                 1.0877
 Frc consts  --      1.4510                 1.4810                 1.7323
 IR Inten    --      3.6632                 3.2785                60.9943
 Raman Activ --      0.3180                14.2409                 4.1600

                     37                     38                     39
                      A                      A                      A
 Frequencies --   1647.6918              2372.9861              2956.0880
 Red. masses --      1.0872                12.8613                 1.0715
 Frc consts  --      1.7390                42.6701                 5.5169
 IR Inten    --     35.5281              1081.2739                89.2416
 Raman Activ --      5.7286                 1.5143               250.0415

                     40                     41                     42
                      A                      A                      A
 Frequencies --   2962.4958              3011.3202              3033.6489
 Red. masses --      1.0730                 1.0586                 1.0916
 Frc consts  --      5.5485                 5.6558                 5.9191
 IR Inten    --    129.3113                57.9888                 0.6720
 Raman Activ --    383.3074               260.3549               320.1088

                     43                     44                     45
                      A                      A                      A
 Frequencies --   3046.5955              3061.5177              3487.6451
 Red. masses --      1.0884                 1.1010                 1.0506
 Frc consts  --      5.9522                 6.0799                 7.5290
 IR Inten    --     44.4170               144.4243                 0.0625
 Raman Activ --    117.6408                10.6072               250.5286

                     46                     47                     48
                      A                      A                      A
 Frequencies --   3488.1563              3560.2224              3560.9949
 Red. masses --      1.0504                 1.0923                 1.0926
 Frc consts  --      7.5302                 8.1575                 8.1630
 IR Inten    --      0.0095                 2.8933                 3.4355
 Raman Activ --    241.8686               130.2986               117.8281

 - Thermochemistry -
 -------------------
 Temperature   298.150 Kelvin.  Pressure   1.00000 Atm.
 Thermochemistry will use frequencies scaled by 0.9670.

 Molecular mass:   118.07423 amu.
 Principal axes and moments of inertia in atomic units:
                           1         2         3
     Eigenvalues --   613.136822230.876922477.86496
           X            0.88968  -0.38471   0.24591
           Y            0.44730   0.62628  -0.63851
           Z            0.09163   0.67807   0.72927
 This molecule is an asymmetric top.
 Rotational symmetry number  1.
 Warning -- assumption of classical behavior for rotation
           may cause significant error
 Rotational temperatures (Kelvin)      0.14126     0.03883     0.03496
 Rotational constants (GHZ):           2.94346     0.80898     0.72835
 Zero-point vibrational energy     383907.8 (Joules/Mol)
                                   91.75617 (Kcal/Mol)
 Warning -- explicit consideration of  13 degrees of freedom as
           vibrations may cause significant error
 Vibrational temperatures:     30.16    55.14    75.19   130.86   159.52
          (Kelvin)            175.61   247.27   257.46   349.15   413.95
                              577.56   633.54   832.05   924.23  1065.32
                             1167.21  1219.66  1270.32  1369.85  1375.42
                             1477.07  1506.14  1544.62  1646.58  1694.33
                             1812.17  1827.46  1847.99  1881.10  1898.96
                             1982.35  1990.58  2062.44  2096.73  2111.33
                             2287.49  2292.43  3301.53  4112.80  4121.71
                             4189.64  4220.71  4238.72  4259.48  4852.35
                             4853.06  4953.33  4954.40

 Zero-point correction=                           0.146223 (Hartree/Particle)
 Thermal correction to Energy=                    0.157440
 Thermal correction to Enthalpy=                  0.158384
 Thermal correction to Gibbs Free Energy=         0.106761
 Sum of electronic and zero-point Energies=           -418.444759
 Sum of electronic and thermal Energies=              -418.433542
 Sum of electronic and thermal Enthalpies=            -418.432598
 Sum of electronic and thermal Free Energies=         -418.484221

                     E (Thermal)             CV                S
                      KCal/Mol        Cal/Mol-Kelvin    Cal/Mol-Kelvin
 Total                   98.795             35.988            108.651
 Electronic               0.000              0.000              0.000
 Translational            0.889              2.981             40.213
 Rotational               0.889              2.981             29.606
 Vibrational             97.018             30.026             38.831
 Vibration     1          0.593              1.986              6.541
 Vibration     2          0.594              1.982              5.344
 Vibration     3          0.596              1.977              4.730
 Vibration     4          0.602              1.956              3.639
 Vibration     5          0.607              1.940              3.254
 Vibration     6          0.610              1.931              3.068
 Vibration     7          0.626              1.877              2.415
 Vibration     8          0.629              1.868              2.339
 Vibration     9          0.659              1.775              1.783
 Vibration    10          0.685              1.697              1.487
 Vibration    11          0.767              1.467              0.957
 Vibration    12          0.800              1.382              0.826
 Vibration    13          0.935              1.078              0.489

 Optimization completed.
    -- Stationary point found.
 Normal termination of Gaussian 16 at Fri Jun  2 16:25:15 2023.
