 Gaussian 16, Revision C.01,
 Gaussian 16:  ES64L-G16RevC.01  3-Jul-2019

 ----------------------------------------------------------------------
 #p freq=raman scale=0.967 pop=(nbo,full,hirshfeld) guess=read geom=all
 check b3lyp/6-311+G(d,p) int=grid=ultrafine EmpiricalDispersion=GD3BJ
 SCRF=(Solvent=ethanol) scf=(xqc,intrep,maxconventionalcycle=350) nosym
 m
 ----------------------------------------------------------------------

 Structure from the checkpoint file:  "/scratch1/svicchi/G09-659907.pbs02/02-freq/EG-isolated-freq.chk"
 ---------------
 EG-isolated.gjf
 ---------------
 Charge =  0 Multiplicity = 1

                          Input orientation:
 ---------------------------------------------------------------------
 Center     Atomic      Atomic             Coordinates (Angstroms)
 Number     Number       Type             X           Y           Z
 ---------------------------------------------------------------------
      1          8           0        2.160546   -0.790395    0.126852
      2          6           0        3.122744    0.266115    0.062313
      3          6           0        4.492045   -0.379704   -0.040461
      4          1           0        3.077876    0.892486    0.960435
      5          1           0        2.948983    0.901400   -0.813584
      6          8           0        5.454224    0.676806   -0.105293
      7          1           0        4.536837   -1.006239   -0.938477
      8          1           0        4.665899   -1.014827    0.835532
      9          1           0        1.282472   -0.400991    0.187717
     10          1           0        6.332364    0.287398   -0.165236
 ---------------------------------------------------------------------

 SCF Done:  E(RB3LYP) =  -230.349122578     A.U. after    1 cycles

 Alpha  occ. eigenvalues --  -19.13447 -19.13447 -10.22143 -10.22119  -1.03843
 Alpha  occ. eigenvalues --   -1.02800  -0.74967  -0.61679  -0.54796  -0.49285
 Alpha  occ. eigenvalues --   -0.49185  -0.42828  -0.40790  -0.37401  -0.34049
 Alpha  occ. eigenvalues --   -0.29084  -0.29037
 Alpha virt. eigenvalues --    0.00165   0.00699   0.03314   0.04201   0.06007
 Alpha virt. eigenvalues --    0.07358   0.07868   0.12713   0.13329   0.15332
 Alpha virt. eigenvalues --    0.15438   0.16123   0.17732   0.17750   0.19402

 Mulliken charges:
               1
     1  O   -0.404391
     2  C   -0.178918
     3  C   -0.178927
     4  H    0.150462
     5  H    0.150421
     6  O   -0.404392
     7  H    0.150454
     8  H    0.150430
     9  H    0.282431
    10  H    0.282431
 Sum of Mulliken charges =  -0.00000

 Dipole moment (field-independent basis, Debye):
    X=              0.0002    Y=             -0.0000    Z=              0.0023  Tot=              0.0023
 Quadrupole moment (field-independent basis, Debye-Ang):
   XX=            -16.6754   YY=            -29.7118   ZZ=            -25.8218
   XY=             -6.0773   XZ=             -0.6268   YZ=              0.4267

  Exact polarizability:      44.806       2.077      42.325      -0.444      -0.122      38.370
 Approx polarizability:      45.285       1.733      44.866      -0.316      -0.104      40.454

 Summary of Natural Population Analysis:

                                       Natural Population
                Natural  -----------------------------------------------
    Atom  No    Charge         Core      Valence    Rydberg      Total
 -----------------------------------------------------------------------
      O    1   -0.76633      1.99978     6.75346    0.01309     8.76633
      C    2   -0.04348      1.99925     4.02199    0.02225     6.04348
      C    3   -0.04348      1.99925     4.02199    0.02225     6.04348
      H    4    0.16546      0.00000     0.83206    0.00248     0.83454
      H    5    0.16557      0.00000     0.83196    0.00247     0.83443
      O    6   -0.76633      1.99978     6.75346    0.01309     8.76633
      H    7    0.16546      0.00000     0.83207    0.00248     0.83454
      H    8    0.16558      0.00000     0.83195    0.00247     0.83442
      H    9    0.47878      0.00000     0.51713    0.00410     0.52122
      H   10    0.47878      0.00000     0.51713    0.00410     0.52122
 =======================================================================
   * Total *    0.00000      7.99807    25.91317    0.08876    34.00000

                      1                      2                      3
                      A                      A                      A
 Frequencies --    101.6707               182.2580               208.6954
 Red. masses --      3.1530                 1.1138                 1.0672
 Frc consts  --      0.0192                 0.0218                 0.0274
 IR Inten    --    118.5930                 0.0064               297.1770
 Raman Activ --      0.0000                 3.9187                 0.0001

                      4                      5                      6
                      A                      A                      A
 Frequencies --    294.7967               476.0289               831.2159
 Red. masses --      3.3717                 6.9245                 1.0947
 Frc consts  --      0.1726                 0.9245                 0.4456
 IR Inten    --     31.5483                 0.0000                 1.5706
 Raman Activ --      0.0000                 3.5300                 0.0000

                      7                      8                      9
                      A                      A                      A
 Frequencies --    986.6677              1036.4140              1064.0665
 Red. masses --      2.2326                 9.6100                 4.7288
 Frc consts  --      1.2805                 6.0819                 3.1546
 IR Inten    --      0.0000               324.2639                 0.0000
 Raman Activ --     12.1721                 0.0000                19.4783

                     10                     11                     12
                      A                      A                      A
 Frequencies --   1156.1148              1187.4508              1232.1043
 Red. masses --      1.5703                 1.0356                 1.1282
 Frc consts  --      1.2366                 0.8603                 1.0090
 IR Inten    --      0.0005               119.0560                 2.5459
 Raman Activ --      2.5753                 0.0000                 0.0000

                     13                     14                     15
                      A                      A                      A
 Frequencies --   1276.5491              1304.1588              1406.5993
 Red. masses --      1.2346                 1.0888                 1.3209
 Frc consts  --      1.1853                 1.0911                 1.5398
 IR Inten    --      0.0000                 0.0000                 5.6055
 Raman Activ --      7.8793                29.3137                 0.0000

                     16                     17                     18
                      A                      A                      A
 Frequencies --   1476.2207              1511.7430              1527.6788
 Red. masses --      1.5758                 1.0823                 1.0852
 Frc consts  --      2.0232                 1.4573                 1.4922
 IR Inten    --      0.0000                 0.0000                 7.3867
 Raman Activ --      6.3367                28.5004                 0.0000

                     19                     20                     21
                      A                      A                      A
 Frequencies --   3004.6654              3008.3003              3032.7881
 Red. masses --      1.0549                 1.0544                 1.1066
 Frc consts  --      5.6111                 5.6223                 5.9971
 IR Inten    --      0.0000               156.3519                 0.0000
 Raman Activ --    487.6119                 0.0002               311.6844

                     22                     23                     24
                      A                      A                      A
 Frequencies --   3058.1287              3838.4535              3838.8157
 Red. masses --      1.1117                 1.0671                 1.0669
 Frc consts  --      6.1257                 9.2634                 9.2632
 IR Inten    --    132.6555                 0.9453               150.9420
 Raman Activ --      0.0000               265.4609                 1.6625

 - Thermochemistry -
 -------------------
 Temperature   298.150 Kelvin.  Pressure   1.00000 Atm.
 Thermochemistry will use frequencies scaled by 0.9670.

 Molecular mass:    62.03678 amu.
 Principal axes and moments of inertia in atomic units:
                           1         2         3
     Eigenvalues --    59.13700 455.00667 491.36995
           X            0.95025  -0.30302   0.07216
           Y            0.30412   0.95262  -0.00460
           Z           -0.06734   0.02631   0.99738
 This molecule is an asymmetric top.
 Rotational symmetry number  1.
 Rotational temperatures (Kelvin)      1.46463     0.19036     0.17627
 Rotational constants (GHZ):          30.51797     3.96641     3.67288
 Zero-point vibrational energy     214246.5 (Joules/Mol)
                                   51.20614 (Kcal/Mol)
 Warning -- explicit consideration of   5 degrees of freedom as
           vibrations may cause significant error
 Vibrational temperatures:    141.45   253.58   290.36   410.15   662.30
          (Kelvin)           1156.47  1372.75  1441.96  1480.43  1608.50
                             1652.10  1714.22  1776.06  1814.47  1957.00
                             2053.86  2103.28  2125.46  4180.38  4185.44
                             4219.51  4254.77  5340.43  5340.93

 Zero-point correction=                           0.081602 (Hartree/Particle)
 Thermal correction to Energy=                    0.087330
 Thermal correction to Enthalpy=                  0.088274
 Thermal correction to Gibbs Free Energy=         0.053396
 Sum of electronic and zero-point Energies=           -230.267520
 Sum of electronic and thermal Energies=              -230.261793
 Sum of electronic and thermal Enthalpies=            -230.260849
 Sum of electronic and thermal Free Energies=         -230.295727

                     E (Thermal)             CV                S
                      KCal/Mol        Cal/Mol-Kelvin    Cal/Mol-Kelvin
 Total                   54.800             17.910             73.407
 Electronic               0.000              0.000              0.000
 Translational            0.889              2.981             38.295
 Rotational               0.889              2.981             24.095
 Vibrational             53.023             11.948             11.017
 Vibration     1          0.604              1.950              3.487
 Vibration     2          0.628              1.872              2.368
 Vibration     3          0.639              1.837              2.117
 Vibration     4          0.683              1.701              1.503
 Vibration     5          0.818              1.338              0.765

 Optimization completed.
    -- Stationary point found.
 Normal termination of Gaussian 16 at Fri Jun  2 11:17:08 2023.
