 Gaussian 16, Revision C.01,
 Gaussian 16:  ES64L-G16RevC.01  3-Jul-2019

 ----------------------------------------------------------------------
 #p freq=raman scale=0.967 pop=(nbo,full,hirshfeld) guess=read geom=all
 check b3lyp/6-311+G(d,p) int=grid=ultrafine EmpiricalDispersion=GD3BJ
 SCRF=(Solvent=ethanol) scf=(xqc,intrep,maxconventionalcycle=350) nosym
 m
 ----------------------------------------------------------------------

 Structure from the checkpoint file:  "/scratch1/svicchi/G09-659893.pbs02/02-freq/PDA-CO2_binding-site_index-5-freq.chk"
 --------------------------------
 PDA-CO2_binding-site_index-5.gjf
 --------------------------------
 Charge = -1 Multiplicity = 1

                          Input orientation:
 ---------------------------------------------------------------------
 Center     Atomic      Atomic             Coordinates (Angstroms)
 Number     Number       Type             X           Y           Z
 ---------------------------------------------------------------------
      1          6           0       -3.370093    1.009707    0.043922
      2          6           0       -2.018516    1.710461    0.227334
      3          6           0       -0.832701    0.817864   -0.143143
      4          1           0       -1.922523    2.035274    1.270985
      5          1           0       -2.006338    2.616463   -0.388281
      6          7           0       -4.525839    1.836573    0.358765
      7          1           0       -3.404913    0.114569    0.675370
      8          1           0       -3.474123    0.680934   -0.991454
      9          1           0       -4.608898    2.108174    1.328751
     10          6           0        0.522411    1.500448    0.054416
     11          1           0       -0.932465    0.502713   -1.189339
     12          1           0       -0.865951   -0.099829    0.458124
     13          6           0        1.700707    0.610948   -0.331836
     14          7           0        2.981870    1.305123   -0.116256
     15          1           0        1.569912    0.275547   -1.371979
     16          1           0        1.698422   -0.287923    0.293274
     17          1           0        0.635599    1.806401    1.100618
     18          1           0        0.555859    2.419238   -0.545207
     19          1           0        3.046192    2.106785   -0.738279
     20          1           0        3.755647    0.694847   -0.362306
     21          6           0       -4.980663    2.842463   -0.527088
     22          8           0       -4.656837    2.737551   -1.741675
     23          8           0       -5.709944    3.739117   -0.009353
 ---------------------------------------------------------------------

 SCF Done:  E(RB3LYP) =  -496.783342962     A.U. after    2 cycles

 Alpha  occ. eigenvalues --  -19.04215 -19.04078 -14.29312 -14.29111 -10.25748
 Alpha  occ. eigenvalues --  -10.18691 -10.18073 -10.15891 -10.15849 -10.15319
 Alpha  occ. eigenvalues --   -1.01651  -0.91903  -0.88096  -0.87448  -0.78841
 Alpha  occ. eigenvalues --   -0.72420  -0.65191  -0.59464  -0.57698  -0.53564
 Alpha  occ. eigenvalues --   -0.48923  -0.47517  -0.45274  -0.45003  -0.43010
 Alpha  occ. eigenvalues --   -0.42572  -0.40570  -0.38733  -0.37957  -0.37225
 Alpha  occ. eigenvalues --   -0.35633  -0.33723  -0.33532  -0.32829  -0.32025
 Alpha  occ. eigenvalues --   -0.25141  -0.24713  -0.23798  -0.22130  -0.21750
 Alpha virt. eigenvalues --    0.00783   0.01615   0.02332   0.03127   0.03304
 Alpha virt. eigenvalues --    0.04422   0.05053   0.06221   0.06394   0.07032
 Alpha virt. eigenvalues --    0.07584   0.07772   0.08964   0.09460   0.09705

 Mulliken charges:
               1
     1  C   -0.428345
     2  C   -0.117585
     3  C   -0.155296
     4  H    0.130629
     5  H    0.146138
     6  N   -0.313605
     7  H    0.130873
     8  H    0.160797
     9  H    0.241261
    10  C   -0.290447
    11  H    0.138968
    12  H    0.140171
    13  C   -0.347394
    14  N   -0.512432
    15  H    0.129314
    16  H    0.138409
    17  H    0.142023
    18  H    0.133473
    19  H    0.228806
    20  H    0.247308
    21  C    0.293984
    22  O   -0.612103
    23  O   -0.624947
 Sum of Mulliken charges =  -1.00000

 Dipole moment (field-independent basis, Debye):
    X=             26.2843    Y=            -17.1188    Z=              3.9048  Tot=             31.6096
 Quadrupole moment (field-independent basis, Debye-Ang):
   XX=           -212.3712   YY=           -125.4072   ZZ=            -74.7921
   XY=             89.3985   XZ=            -31.2936   YZ=             11.9448

  Exact polarizability:     138.764     -12.692     129.672      -2.248       1.009     128.909
 Approx polarizability:     131.488     -10.305     137.788      -4.375       1.553     142.237

 Summary of Natural Population Analysis:

                                       Natural Population
                Natural  -----------------------------------------------
    Atom  No    Charge         Core      Valence    Rydberg      Total
 -----------------------------------------------------------------------
      C    1   -0.18205      1.99927     4.16045    0.02233     6.18205
      C    2   -0.39251      1.99927     4.37871    0.01453     6.39251
      C    3   -0.38472      1.99928     4.37055    0.01490     6.38472
      H    4    0.18691      0.00000     0.81051    0.00258     0.81309
      H    5    0.19567      0.00000     0.80171    0.00262     0.80433
      N    6   -0.71916      1.99938     5.69710    0.02267     7.71916
      H    7    0.18045      0.00000     0.81747    0.00208     0.81955
      H    8    0.20050      0.00000     0.79683    0.00267     0.79950
      H    9    0.37558      0.00000     0.62195    0.00248     0.62442
      C   10   -0.38879      1.99928     4.37319    0.01632     6.38879
      H   11    0.19138      0.00000     0.80595    0.00267     0.80862
      H   12    0.18976      0.00000     0.80765    0.00258     0.81024
      C   13   -0.17920      1.99930     4.16193    0.01796     6.17920
      N   14   -0.87293      1.99954     5.85159    0.02180     7.87293
      H   15    0.16065      0.00000     0.83651    0.00284     0.83935
      H   16    0.18048      0.00000     0.81724    0.00229     0.81952
      H   17    0.19401      0.00000     0.80325    0.00274     0.80599
      H   18    0.18961      0.00000     0.80802    0.00237     0.81039
      H   19    0.35401      0.00000     0.64310    0.00289     0.64599
      H   20    0.35973      0.00000     0.63792    0.00236     0.64027
      C   21    0.88323      1.99960     3.05411    0.06307     5.11677
      O   22   -0.85481      1.99977     6.84148    0.01357     8.85481
      O   23   -0.86780      1.99978     6.85399    0.01404     8.86780
 =======================================================================
   * Total *   -1.00000     19.99446    59.75119    0.25434    80.00000

                      1                      2                      3
                      A                      A                      A
 Frequencies --     43.6502                52.2341                56.0067
 Red. masses --      4.5244                 1.9831                 7.5073
 Frc consts  --      0.0051                 0.0032                 0.0139
 IR Inten    --     14.0518                15.0095                 1.7184
 Raman Activ --      0.7646                 1.3952                 3.3145

                      4                      5                      6
                      A                      A                      A
 Frequencies --     92.3807               117.5565               132.2666
 Red. masses --      4.0736                 3.5873                 1.9517
 Frc consts  --      0.0205                 0.0292                 0.0201
 IR Inten    --      4.2429                 1.4751                 4.9477
 Raman Activ --      0.6554                 0.5660                 0.0937

                      7                      8                      9
                      A                      A                      A
 Frequencies --    148.8728               239.2145               276.8740
 Red. masses --      2.3675                 1.3413                 3.0638
 Frc consts  --      0.0309                 0.0452                 0.1384
 IR Inten    --      2.1626                57.1052                 2.3720
 Raman Activ --      0.1363                 1.0182                 4.4304

                     10                     11                     12
                      A                      A                      A
 Frequencies --    281.4778               317.8042               457.9873
 Red. masses --      2.4785                 3.9224                 2.9306
 Frc consts  --      0.1157                 0.2334                 0.3622
 IR Inten    --     18.0641                 9.8839                 6.1215
 Raman Activ --      0.5350                 2.5847                 0.2483

                     13                     14                     15
                      A                      A                      A
 Frequencies --    475.5528               539.6450               605.0766
 Red. masses --      3.6981                 1.6640                 4.5461
 Frc consts  --      0.4928                 0.2855                 0.9807
 IR Inten    --     16.9152               166.1028                17.4300
 Raman Activ --      0.7279                 1.4165                 1.1758

                     16                     17                     18
                      A                      A                      A
 Frequencies --    687.3744               738.1921               769.1486
 Red. masses --      2.0806                 1.1053                 1.2354
 Frc consts  --      0.5792                 0.3549                 0.4306
 IR Inten    --     50.7860                18.4737                13.7591
 Raman Activ --      1.0604                 0.2887                 0.6232

                     19                     20                     21
                      A                      A                      A
 Frequencies --    815.0499               832.3056               878.4879
 Red. masses --     11.2717                 1.3172                 1.3495
 Frc consts  --      4.4117                 0.5376                 0.6136
 IR Inten    --     37.9961                78.0315               113.4108
 Raman Activ --      0.3880                 2.4359                 9.7744

                     22                     23                     24
                      A                      A                      A
 Frequencies --    932.6163               963.1617               999.2744
 Red. masses --      2.2798                 2.8049                 1.5864
 Frc consts  --      1.1683                 1.5331                 0.9333
 IR Inten    --     49.9082                 9.0585                10.3919
 Raman Activ --      7.5116                 7.3974                 6.3633

                     25                     26                     27
                      A                      A                      A
 Frequencies --   1014.7992              1057.3751              1062.7115
 Red. masses --      3.8566                 2.3961                 2.4815
 Frc consts  --      2.3400                 1.5784                 1.6512
 IR Inten    --     10.4902                 5.3866                 2.0184
 Raman Activ --      2.4064                15.0122                 6.3780

                     28                     29                     30
                      A                      A                      A
 Frequencies --   1079.9924              1132.6372              1152.3240
 Red. masses --      2.8192                 2.1712                 2.1602
 Frc consts  --      1.9374                 1.6411                 1.6900
 IR Inten    --     24.4785                46.4049                51.4007
 Raman Activ --     24.7331                 4.8604                 4.9596

                     31                     32                     33
                      A                      A                      A
 Frequencies --   1178.8223              1232.2527              1265.8471
 Red. masses --      1.7024                 1.3831                 1.3175
 Frc consts  --      1.3938                 1.2374                 1.2438
 IR Inten    --     15.2013                16.9873                 1.7500
 Raman Activ --      3.0453                 2.8097                 2.9913

                     34                     35                     36
                      A                      A                      A
 Frequencies --   1293.3714              1310.7783              1326.2068
 Red. masses --      1.3676                 3.7258                 1.0334
 Frc consts  --      1.3479                 3.7716                 1.0709
 IR Inten    --     25.2082               601.4581                 0.9759
 Raman Activ --      2.2630                12.9302                50.6062

                     37                     38                     39
                      A                      A                      A
 Frequencies --   1328.4419              1336.1759              1345.4664
 Red. masses --      1.2055                 1.1199                 1.3332
 Frc consts  --      1.2535                 1.1781                 1.4220
 IR Inten    --      9.8808                24.9435                30.6224
 Raman Activ --      1.6104                 6.5248                 1.6280

                     40                     41                     42
                      A                      A                      A
 Frequencies --   1391.5452              1404.6892              1424.4327
 Red. masses --      1.5029                 1.5140                 1.4740
 Frc consts  --      1.7146                 1.7601                 1.7621
 IR Inten    --     11.9515                18.2481                16.6093
 Raman Activ --      3.7733                 4.4083                 1.3846

                     43                     44                     45
                      A                      A                      A
 Frequencies --   1446.1507              1473.5580              1476.8152
 Red. masses --      1.4072                 1.1310                 1.1273
 Frc consts  --      1.7339                 1.4470                 1.4485
 IR Inten    --    177.2936                40.2139                38.0340
 Raman Activ --     22.6874                50.4900                 7.5623

                     46                     47                     48
                      A                      A                      A
 Frequencies --   1486.3682              1500.4186              1514.2772
 Red. masses --      1.1187                 1.1000                 1.0923
 Frc consts  --      1.4561                 1.4591                 1.4758
 IR Inten    --     24.6093                12.4198                 6.0202
 Raman Activ --      6.2963                 1.7031                 7.2477

                     49                     50                     51
                      A                      A                      A
 Frequencies --   1592.4426              1646.2576              2954.6576
 Red. masses --      5.1332                 1.0871                 1.0720
 Frc consts  --      7.6695                 1.7359                 5.5140
 IR Inten    --   1069.0397                50.2742               110.0020
 Raman Activ --      5.1817                 4.8822               273.2691

                     52                     53                     54
                      A                      A                      A
 Frequencies --   2994.5818              2999.2963              3005.3962
 Red. masses --      1.0587                 1.0632                 1.0639
 Frc consts  --      5.5936                 5.6352                 5.6620
 IR Inten    --     13.0679                18.2010               123.9969
 Raman Activ --    487.5343                79.7455               263.2609

                     55                     56                     57
                      A                      A                      A
 Frequencies --   3013.7625              3018.4629              3032.8264
 Red. masses --      1.0731                 1.0923                 1.0892
 Frc consts  --      5.7425                 5.8634                 5.9029
 IR Inten    --     82.2064                 7.3852                61.0345
 Raman Activ --    444.8984               238.0750                72.2153

                     58                     59                     60
                      A                      A                      A
 Frequencies --   3046.5821              3054.8060              3090.5779
 Red. masses --      1.0970                 1.1016                 1.0954
 Frc consts  --      5.9993                 6.0569                 6.1647
 IR Inten    --      3.5677               232.0136                52.9909
 Raman Activ --     86.0991                39.7808               102.2464

                     61                     62                     63
                      A                      A                      A
 Frequencies --   3486.5237              3559.1540              3590.8618
 Red. masses --      1.0505                 1.0922                 1.0756
 Frc consts  --      7.5238                 8.1517                 8.1713
 IR Inten    --      0.1794                 2.1967                 7.4840
 Raman Activ --    253.3147               137.7083               192.0326

 - Thermochemistry -
 -------------------
 Temperature   298.150 Kelvin.  Pressure   1.00000 Atm.
 Thermochemistry will use frequencies scaled by 0.9670.

 Molecular mass:   145.09770 amu.
 Principal axes and moments of inertia in atomic units:
                           1         2         3
     Eigenvalues --   448.337994992.572315086.05726
           X            0.96804   0.22663   0.10738
           Y           -0.24814   0.80352   0.54110
           Z            0.03635  -0.55045   0.83407
 This molecule is an asymmetric top.
 Rotational symmetry number  1.
 Warning -- assumption of classical behavior for rotation
           may cause significant error
 Rotational temperatures (Kelvin)      0.19319     0.01735     0.01703
 Rotational constants (GHZ):           4.02540     0.36149     0.35484
 Zero-point vibrational energy     501895.2 (Joules/Mol)
                                  119.95582 (Kcal/Mol)
 Warning -- explicit consideration of  15 degrees of freedom as
           vibrations may cause significant error
 Vibrational temperatures:     60.73    72.67    77.92   128.53   163.56
          (Kelvin)            184.02   207.13   332.82   385.21   391.62
                              442.16   637.20   661.64   750.81   841.84
                              956.34  1027.04  1070.11  1133.98  1157.98
                             1222.24  1297.55  1340.04  1390.29  1411.89
                             1471.12  1478.55  1502.59  1575.84  1603.23
                             1640.09  1714.43  1761.17  1799.46  1823.68
                             1845.15  1848.26  1859.02  1871.94  1936.05
                             1954.34  1981.81  2012.03  2050.16  2054.69
                             2067.98  2087.53  2106.81  2215.56  2290.43
                             4110.81  4166.35  4172.91  4181.40  4193.04
                             4199.58  4219.56  4238.70  4250.14  4299.91
                             4850.79  4951.84  4995.96

 Zero-point correction=                           0.191162 (Hartree/Particle)
 Thermal correction to Energy=                    0.203136
 Thermal correction to Enthalpy=                  0.204080
 Thermal correction to Gibbs Free Energy=         0.151447
 Sum of electronic and zero-point Energies=           -496.592181
 Sum of electronic and thermal Energies=              -496.580207
 Sum of electronic and thermal Enthalpies=            -496.579263
 Sum of electronic and thermal Free Energies=         -496.631896

                     E (Thermal)             CV                S
                      KCal/Mol        Cal/Mol-Kelvin    Cal/Mol-Kelvin
 Total                  127.470             41.855            110.776
 Electronic               0.000              0.000              0.000
 Translational            0.889              2.981             40.828
 Rotational               0.889              2.981             30.810
 Vibrational            125.692             35.893             39.139
 Vibration     1          0.595              1.980              5.153
 Vibration     2          0.595              1.977              4.797
 Vibration     3          0.596              1.976              4.659
 Vibration     4          0.602              1.957              3.675
 Vibration     5          0.607              1.938              3.205
 Vibration     6          0.611              1.925              2.977
 Vibration     7          0.616              1.909              2.751
 Vibration     8          0.653              1.793              1.869
 Vibration     9          0.673              1.732              1.611
 Vibration    10          0.675              1.725              1.582
 Vibration    11          0.697              1.660              1.377
 Vibration    12          0.803              1.377              0.818
 Vibration    13          0.818              1.339              0.767
 Vibration    14          0.877              1.202              0.606
 Vibration    15          0.942              1.064              0.476

 Normal termination of Gaussian 16 at Fri Jun  2 18:52:11 2023.
