 Gaussian 16, Revision C.02,
 Gaussian 16:  ES64L-G16RevC.02  7-Dec-2021

 ----------------------------------------------------------------------
 #p freq=raman scale=0.967 guess=read geom=allcheck b3lyp/6-311+G(d,p)
 int=grid=ultrafine EmpiricalDispersion=GD3BJ SCRF=(Solvent=ethanol) sc
 f=(xqc,intrep,maxconventionalcycle=350) nosymm
 ----------------------------------------------------------------------

 Structure from the checkpoint file:  "/scratch1/svicchi/G09-1734030.pbs02/02-freq/PyrF-CO2_binding-site_index-5-freq.chk"
 -----------------------------
 PyrF-CO2_binding-site_index-5
 -----------------------------
 Charge = -1 Multiplicity = 1

                          Input orientation:
 ---------------------------------------------------------------------
 Center     Atomic      Atomic             Coordinates (Angstroms)
 Number     Number       Type             X           Y           Z
 ---------------------------------------------------------------------
      1          6           0       -0.467451    0.750364    0.300597
      2          6           0       -1.239764   -0.210512   -0.301128
      3          6           0       -0.366225   -1.251921   -0.757818
      4          1           0       -2.313146   -0.183982   -0.410030
      5          6           0        0.892896   -0.855611   -0.401640
      6          7           0        0.865164    0.357657    0.243907
      7          1           0       -0.718625    1.683544    0.771867
      8          9           0        2.041970   -1.507990   -0.625590
      9          1           0       -0.623073   -2.162146   -1.275703
     10          6           0        1.992943    1.156506    0.817844
     11          8           0        1.629327    2.227616    1.329670
     12          8           0        3.115420    0.645015    0.702901
 ---------------------------------------------------------------------

 SCF Done:  E(RB3LYP) =  -497.697575457     A.U. after    1 cycles

 Alpha  occ. eigenvalues --  -24.69542 -19.06801 -19.06745 -14.35474 -10.29066
 Alpha  occ. eigenvalues --  -10.27072 -10.18390 -10.15953 -10.15870  -1.23663
 Alpha  occ. eigenvalues --   -1.05131  -0.96582  -0.95766  -0.78026  -0.71717
 Alpha  occ. eigenvalues --   -0.60902  -0.58522  -0.57879  -0.48437  -0.48409
 Alpha  occ. eigenvalues --   -0.46451  -0.44682  -0.43542  -0.42812  -0.41553
 Alpha  occ. eigenvalues --   -0.39248  -0.37042  -0.36910  -0.27284  -0.26238
 Alpha  occ. eigenvalues --   -0.25058  -0.24490  -0.21140
 Alpha virt. eigenvalues --    0.00838   0.01336   0.02642   0.03326   0.04703
 Alpha virt. eigenvalues --    0.05265   0.05759   0.06155   0.06895   0.08797
 Alpha virt. eigenvalues --    0.09129   0.09257   0.10147   0.10353   0.11565

 Mulliken charges:
               1
     1  C   -0.105245
     2  C   -0.333982
     3  C   -0.038193
     4  H    0.135721
     5  C    0.002247
     6  N   -0.128400
     7  H    0.153015
     8  F   -0.195370
     9  H    0.135020
    10  C    0.462140
    11  O   -0.545794
    12  O   -0.541158
 Sum of Mulliken charges =  -1.00000

 Dipole moment (field-independent basis, Debye):
    X=            -11.4121    Y=             -5.1057    Z=             -3.9095  Tot=             13.0991
 Quadrupole moment (field-independent basis, Debye-Ang):
   XX=            -84.9648   YY=            -67.0701   ZZ=            -59.5817
   XY=            -10.4604   XZ=             -8.9426   YZ=             -7.6612

  Exact polarizability:     116.370       2.843     103.466       8.174      22.161      75.051
 Approx polarizability:     131.976      -3.353     118.898       6.010      26.335      82.964

                      1                      2                      3
                      A                      A                      A
 Frequencies --     64.9930               132.8330               214.3750
 Red. masses --     13.4594                 5.9421                10.8040
 Frc consts  --      0.0335                 0.0618                 0.2925
 IR Inten    --      0.0241                 2.9605                 1.1016
 Raman Activ --      1.6019                 4.1532                 0.1564

                      4                      5                      6
                      A                      A                      A
 Frequencies --    296.1209               363.1085               413.3007
 Red. masses --      7.7768                 9.2678                11.5698
 Frc consts  --      0.4018                 0.7199                 1.1644
 IR Inten    --      0.0940                 1.5237                 6.9034
 Raman Activ --      4.5519                 3.1974                 5.7957

                      7                      8                      9
                      A                      A                      A
 Frequencies --    573.7410               609.4664               626.4357
 Red. masses --      6.4351                 2.9308                 3.4394
 Frc consts  --      1.2481                 0.6414                 0.7952
 IR Inten    --      1.0640                 7.8791                 1.0422
 Raman Activ --      3.0178                 9.6146                 2.2484

                     10                     11                     12
                      A                      A                      A
 Frequencies --    688.4018               709.7200               763.0639
 Red. masses --      9.6455                 1.2755                11.2694
 Frc consts  --      2.6931                 0.3785                 3.8661
 IR Inten    --     73.9088               156.5104               383.1443
 Raman Activ --     15.4737                 6.2610                10.1167

                     13                     14                     15
                      A                      A                      A
 Frequencies --    765.3307               797.0428               867.0382
 Red. masses --      1.8426                 5.5645                 1.2767
 Frc consts  --      0.6359                 2.0828                 0.5655
 IR Inten    --     10.7502                53.1568                 0.3930
 Raman Activ --     14.4215                 0.1537                 4.5438

                     16                     17                     18
                      A                      A                      A
 Frequencies --    904.0831              1022.0297              1051.2676
 Red. masses --      4.5595                 1.3848                 1.6216
 Frc consts  --      2.1957                 0.8523                 1.0559
 IR Inten    --      3.8170                22.8049               164.8142
 Raman Activ --     13.0217                 2.2970                13.2995

                     19                     20                     21
                      A                      A                      A
 Frequencies --   1157.5989              1193.4678              1242.7345
 Red. masses --      3.3880                 3.2636                 2.0933
 Frc consts  --      2.6749                 2.7388                 1.9048
 IR Inten    --     34.1271               589.2250               238.3552
 Raman Activ --      1.1167                70.2684                73.9411

                     22                     23                     24
                      A                      A                      A
 Frequencies --   1295.6275              1357.4118              1451.9591
 Red. masses --      6.6297                 5.1936                 4.7027
 Frc consts  --      6.5570                 5.6383                 5.8413
 IR Inten    --    410.5419                13.9042                84.7422
 Raman Activ --      9.4220                34.1326                 4.4149

                     25                     26                     27
                      A                      A                      A
 Frequencies --   1504.2013              1584.8808              1714.7103
 Red. masses --      5.3157                 6.3594                12.7293
 Frc consts  --      7.0864                 9.4115                22.0513
 IR Inten    --    107.8948                95.2451              1251.5620
 Raman Activ --    127.4946                15.5718                17.6728

                     28                     29                     30
                      A                      A                      A
 Frequencies --   3229.2218              3248.0046              3285.5722
 Red. masses --      1.0923                 1.0996                 1.0992
 Frc consts  --      6.7108                 6.8345                 6.9913
 IR Inten    --     10.2856                 1.7069                 5.2253
 Raman Activ --    172.1429               267.5010               150.7035

 - Thermochemistry -
 -------------------
 Temperature   298.150 Kelvin.  Pressure   1.00000 Atm.
 Thermochemistry will use frequencies scaled by 0.9670.

 Molecular mass:   128.01478 amu.
 Principal axes and moments of inertia in atomic units:
                           1         2         3
     Eigenvalues --   646.971381089.152661735.99863
           X            0.67608   0.72916  -0.10609
           Y            0.61180  -0.63574  -0.47067
           Z            0.41063  -0.25331   0.87591
 This molecule is an asymmetric top.
 Rotational symmetry number  1.
 Warning -- assumption of classical behavior for rotation
           may cause significant error
 Rotational temperatures (Kelvin)      0.13388     0.07952     0.04989
 Rotational constants (GHZ):           2.78952     1.65701     1.03960
 Zero-point vibrational energy     191609.0 (Joules/Mol)
                                   45.79566 (Kcal/Mol)
 Warning -- explicit consideration of   9 degrees of freedom as
           vibrations may cause significant error
 Vibrational temperatures:     90.42   184.81   298.26   411.99   505.19
          (Kelvin)            575.02   798.24   847.95   871.56   957.77
                              987.43  1061.65  1064.80  1108.92  1206.31
                             1257.85  1421.95  1462.63  1610.56  1660.47
                             1729.01  1802.60  1888.56  2020.11  2092.79
                             2205.04  2385.67  4492.81  4518.94  4571.21

 Zero-point correction=                           0.072980 (Hartree/Particle)
 Thermal correction to Energy=                    0.080302
 Thermal correction to Enthalpy=                  0.081246
 Thermal correction to Gibbs Free Energy=         0.040518
 Sum of electronic and zero-point Energies=           -497.624595
 Sum of electronic and thermal Energies=              -497.617274
 Sum of electronic and thermal Enthalpies=            -497.616330
 Sum of electronic and thermal Free Energies=         -497.657057

                     E (Thermal)             CV                S
                      KCal/Mol        Cal/Mol-Kelvin    Cal/Mol-Kelvin
 Total                   50.390             26.795             85.718
 Electronic               0.000              0.000              0.000
 Translational            0.889              2.981             40.454
 Rotational               0.889              2.981             28.594
 Vibrational             48.613             20.834             16.670
 Vibration     1          0.597              1.972              4.366
 Vibration     2          0.611              1.925              2.969
 Vibration     3          0.641              1.829              2.067
 Vibration     4          0.684              1.699              1.495
 Vibration     5          0.728              1.573              1.161
 Vibration     6          0.766              1.471              0.964
 Vibration     7          0.910              1.129              0.534
 Vibration     8          0.947              1.054              0.468
 Vibration     9          0.964              1.020              0.440

 Normal termination of Gaussian 16 at Thu Dec 14 12:31:54 2023.
