 Gaussian 16, Revision C.02,
 Gaussian 16:  ES64L-G16RevC.02  7-Dec-2021

 ----------------------------------------------------------------------
 #p freq=raman scale=0.967 guess=read geom=allcheck b3lyp/6-311+G(d,p)
 int=grid=ultrafine EmpiricalDispersion=GD3BJ SCRF=(Solvent=ethanol) sc
 f=(xqc,intrep,maxconventionalcycle=350) nosymm
 ----------------------------------------------------------------------

 Structure from the checkpoint file:  "/scratch1/svicchi/G09-1868865.pbs02/02-freq/IMIDEtOH-CO2_binding-site_index-5-freq.chk"
 ---------------------------------
 IMIDEtOH-CO2_binding-site_index-5
 ---------------------------------
 Charge = -1 Multiplicity = 1

                          Input orientation:
 ---------------------------------------------------------------------
 Center     Atomic      Atomic             Coordinates (Angstroms)
 Number     Number       Type             X           Y           Z
 ---------------------------------------------------------------------
      1          6           0       -2.504196    3.601542    0.371118
      2          7           0       -1.503452    3.030463   -0.277332
      3          6           0       -2.019060    1.882647   -0.853701
      4          6           0       -3.339823    1.751901   -0.537159
      5          1           0       -1.406956    1.225666   -1.452404
      6          7           0       -3.659248    2.854809    0.239723
      7          1           0       -4.080650    1.010140   -0.774921
      8          6           0       -2.362640    4.868105    1.154666
      9          1           0       -3.011315    4.842345    2.030972
     10          1           0       -1.327691    4.920089    1.501531
     11          6           0       -2.647140    6.142186    0.345803
     12          1           0       -2.480552    7.007736    1.000764
     13          1           0       -1.938496    6.213333   -0.485321
     14          8           0       -3.961334    6.186038   -0.201258
     15          1           0       -4.517126    5.560916    0.313870
     16          6           0       -5.013308    3.086061    0.800903
     17          8           0       -5.745005    2.090691    0.807712
     18          8           0       -5.240585    4.255148    1.184906
 ---------------------------------------------------------------------

 SCF Done:  E(RB3LYP) =  -568.410361064     A.U. after    1 cycles

 Alpha  occ. eigenvalues --  -19.10035 -19.08209 -19.07799 -14.36016 -14.29348
 Alpha  occ. eigenvalues --  -10.30123 -10.22816 -10.21033 -10.18938 -10.18033
 Alpha  occ. eigenvalues --  -10.17348  -1.06504  -1.00475  -1.00025  -0.96874
 Alpha  occ. eigenvalues --   -0.86382  -0.78269  -0.71564  -0.63927  -0.61746
 Alpha  occ. eigenvalues --   -0.59058  -0.53589  -0.49055  -0.47363  -0.46557
 Alpha  occ. eigenvalues --   -0.45487  -0.43926  -0.43384  -0.43043  -0.41117
 Alpha  occ. eigenvalues --   -0.39565  -0.38002  -0.36619  -0.32787  -0.29769
 Alpha  occ. eigenvalues --   -0.28172  -0.27560  -0.27156  -0.26487  -0.25196
 Alpha  occ. eigenvalues --   -0.22629
 Alpha virt. eigenvalues --   -0.00539   0.01112   0.02361   0.03080   0.03495
 Alpha virt. eigenvalues --    0.04493   0.04965   0.05227   0.05875   0.06009
 Alpha virt. eigenvalues --    0.07138   0.08181   0.08471   0.08623   0.09612

 Mulliken charges:
               1
     1  C    0.046718
     2  N   -0.224583
     3  C   -0.178667
     4  C    0.009089
     5  H    0.133315
     6  N   -0.113457
     7  H    0.154853
     8  C   -0.435935
     9  H    0.181676
    10  H    0.165430
    11  C   -0.241925
    12  H    0.135606
    13  H    0.143703
    14  O   -0.440094
    15  H    0.317243
    16  C    0.377073
    17  O   -0.500499
    18  O   -0.529545
 Sum of Mulliken charges =  -1.00000

 Dipole moment (field-independent basis, Debye):
    X=             22.4561    Y=            -17.6249    Z=             -1.5817  Tot=             28.5904
 Quadrupole moment (field-independent basis, Debye-Ang):
   XX=           -192.1657   YY=           -144.1143   ZZ=            -70.1569
   XY=             82.3398   XZ=             15.2770   YZ=              1.4447

  Exact polarizability:     143.437       8.888     144.269     -12.203      18.600     103.320
 Approx polarizability:     159.002      11.432     157.037     -12.895      21.028     115.438

                      1                      2                      3
                      A                      A                      A
 Frequencies --     56.2772                81.2244               136.7328
 Red. masses --      7.3129                 8.0524                 6.0969
 Frc consts  --      0.0136                 0.0313                 0.0672
 IR Inten    --      1.5900                10.1426                13.8969
 Raman Activ --      1.4418                 3.2867                 3.4635

                      4                      5                      6
                      A                      A                      A
 Frequencies --    156.3646               209.0448               229.9693
 Red. masses --      2.8409                 6.1420                 6.9264
 Frc consts  --      0.0409                 0.1581                 0.2158
 IR Inten    --      4.2548                13.0731                24.5586
 Raman Activ --      2.2974                 0.1653                 0.4357

                      7                      8                      9
                      A                      A                      A
 Frequencies --    313.5236               352.7948               416.7591
 Red. masses --      5.3403                 3.2214                 8.6457
 Frc consts  --      0.3093                 0.2362                 0.8848
 IR Inten    --     12.5184                10.2345                 8.4734
 Raman Activ --      2.5268                 3.1942                 6.2601

                     10                     11                     12
                      A                      A                      A
 Frequencies --    489.3230               567.1809               632.1917
 Red. masses --      2.2663                 5.0325                 3.6175
 Frc consts  --      0.3197                 0.9538                 0.8518
 IR Inten    --      1.9283                 6.8483                 1.8457
 Raman Activ --      2.5328                 1.2372                 4.1898

                     13                     14                     15
                      A                      A                      A
 Frequencies --    669.3937               703.6574               736.1690
 Red. masses --      4.4138                 1.1047                 1.9280
 Frc consts  --      1.1653                 0.3223                 0.6156
 IR Inten    --     12.8528               227.5113                60.4789
 Raman Activ --      7.2519                 1.4890                 7.7753

                     16                     17                     18
                      A                      A                      A
 Frequencies --    759.2068               785.3869               807.9275
 Red. masses --      1.9759                 9.2364                 8.8863
 Frc consts  --      0.6710                 3.3567                 3.4176
 IR Inten    --     58.6574               253.6741                56.2691
 Raman Activ --      4.1495                 9.9727                 3.7802

                     19                     20                     21
                      A                      A                      A
 Frequencies --    860.6544               867.4720               937.9991
 Red. masses --      2.1567                 1.4893                 5.2026
 Frc consts  --      0.9412                 0.6603                 2.6970
 IR Inten    --     41.6760                 5.5300                 0.1481
 Raman Activ --      5.1208                10.6046                 9.9412

                     22                     23                     24
                      A                      A                      A
 Frequencies --    954.3042              1048.7111              1064.0661
 Red. masses --      2.6205                 1.9104                 1.5113
 Frc consts  --      1.4061                 1.2379                 1.0082
 IR Inten    --      2.6241                43.1732                58.6581
 Raman Activ --      7.0068                 7.3198                 9.2176

                     25                     26                     27
                      A                      A                      A
 Frequencies --   1079.8467              1134.4891              1180.3717
 Red. masses --      4.2779                 2.2118                 3.6470
 Frc consts  --      2.9390                 1.6773                 2.9938
 IR Inten    --     84.8671                79.9972                56.4897
 Raman Activ --     14.4494                13.6209                18.7101

                     28                     29                     30
                      A                      A                      A
 Frequencies --   1199.2426              1239.0799              1271.2266
 Red. masses --      1.9788                 1.8851                 1.2208
 Frc consts  --      1.6768                 1.7052                 1.1623
 IR Inten    --    324.3592                69.0933                18.9767
 Raman Activ --     38.9772                20.4422                18.2197

                     31                     32                     33
                      A                      A                      A
 Frequencies --   1290.1783              1340.4293              1363.5886
 Red. masses --      5.0867                 2.6698                 1.6125
 Frc consts  --      4.9887                 2.8263                 1.7665
 IR Inten    --    560.2166                25.8419                 6.9510
 Raman Activ --     37.2673                29.0637                16.5504

                     34                     35                     36
                      A                      A                      A
 Frequencies --   1377.2595              1433.6169              1455.9557
 Red. masses --      1.2784                 2.3333                 1.3203
 Frc consts  --      1.4287                 2.8255                 1.6490
 IR Inten    --     28.3409                21.9262                76.6626
 Raman Activ --      6.4714                40.2401                15.7106

                     37                     38                     39
                      A                      A                      A
 Frequencies --   1482.9887              1507.1862              1516.0317
 Red. masses --      1.1667                 1.8427                 1.8196
 Frc consts  --      1.5118                 2.4662                 2.4640
 IR Inten    --     65.3972                13.8757                 8.9246
 Raman Activ --      9.7725               117.6732               153.4250

                     40                     41                     42
                      A                      A                      A
 Frequencies --   1549.0382              1702.6149              2984.3399
 Red. masses --      5.3976                11.9645                 1.0670
 Frc consts  --      7.6310                20.4351                 5.5991
 IR Inten    --     18.3743              1265.4122               173.5496
 Raman Activ --      4.1777                11.4533               412.7572

                     43                     44                     45
                      A                      A                      A
 Frequencies --   3039.2238              3059.6908              3109.5918
 Red. masses --      1.0945                 1.0628                 1.1017
 Frc consts  --      5.9565                 5.8624                 6.2764
 IR Inten    --     68.6347                44.9860                22.5310
 Raman Activ --    229.7525               353.9338               115.1658

                     46                     47                     48
                      A                      A                      A
 Frequencies --   3231.7344              3290.3412              3412.5169
 Red. masses --      1.0950                 1.1015                 1.0712
 Frc consts  --      6.7380                 7.0259                 7.3497
 IR Inten    --     14.1164                 4.2647              1032.1536
 Raman Activ --    205.5814               173.2847               213.3377

 - Thermochemistry -
 -------------------
 Temperature   298.150 Kelvin.  Pressure   1.00000 Atm.
 Thermochemistry will use frequencies scaled by 0.9670.

 Molecular mass:   155.04567 amu.
 Principal axes and moments of inertia in atomic units:
                           1         2         3
     Eigenvalues --  1265.566281527.487562499.03491
           X            0.20668   0.93384   0.29192
           Y            0.97378  -0.16735  -0.15411
           Z            0.09507  -0.31612   0.94394
 This molecule is an asymmetric top.
 Rotational symmetry number  1.
 Warning -- assumption of classical behavior for rotation
           may cause significant error
 Rotational temperatures (Kelvin)      0.06844     0.05670     0.03466
 Rotational constants (GHZ):           1.42603     1.18151     0.72218
 Zero-point vibrational energy     341755.4 (Joules/Mol)
                                   81.68151 (Kcal/Mol)
 Warning -- explicit consideration of  12 degrees of freedom as
           vibrations may cause significant error
 Vibrational temperatures:     78.30   113.01   190.24   217.55   290.84
          (Kelvin)            319.96   436.20   490.84   579.84   680.79
                              789.12   879.57   931.33   979.00  1024.23
                             1056.28  1092.71  1124.07  1197.43  1206.91
                             1305.04  1327.72  1459.07  1480.43  1502.39
                             1578.41  1642.25  1668.50  1723.93  1768.65
                             1795.02  1864.94  1897.16  1916.18  1994.59
                             2025.67  2063.28  2096.94  2109.25  2155.17
                             2368.84  4152.10  4228.46  4256.94  4326.37
                             4496.30  4577.84  4747.83

 Zero-point correction=                           0.130168 (Hartree/Particle)
 Thermal correction to Energy=                    0.139847
 Thermal correction to Enthalpy=                  0.140791
 Thermal correction to Gibbs Free Energy=         0.094463
 Sum of electronic and zero-point Energies=           -568.280193
 Sum of electronic and thermal Energies=              -568.270514
 Sum of electronic and thermal Enthalpies=            -568.269570
 Sum of electronic and thermal Free Energies=         -568.315898

                     E (Thermal)             CV                S
                      KCal/Mol        Cal/Mol-Kelvin    Cal/Mol-Kelvin
 Total                   87.755             35.867             97.506
 Electronic               0.000              0.000              0.000
 Translational            0.889              2.981             41.025
 Rotational               0.889              2.981             29.959
 Vibrational             85.978             29.906             26.522
 Vibration     1          0.596              1.976              4.650
 Vibration     2          0.600              1.964              3.927
 Vibration     3          0.612              1.921              2.913
 Vibration     4          0.619              1.901              2.657
 Vibration     5          0.639              1.837              2.113
 Vibration     6          0.648              1.807              1.940
 Vibration     7          0.695              1.668              1.399
 Vibration     8          0.721              1.593              1.207
 Vibration     9          0.768              1.464              0.952
 Vibration    10          0.830              1.310              0.729
 Vibration    11          0.904              1.143              0.547
 Vibration    12          0.970              1.008              0.431

 Optimization completed.
    -- Stationary point found.
 Normal termination of Gaussian 16 at Thu Jan 11 15:25:42 2024.
