 Gaussian 16, Revision C.02,
 Gaussian 16:  ES64L-G16RevC.02  7-Dec-2021

 ----------------------------------------------------------------------
 #p freq=raman scale=0.967 guess=read geom=allcheck b3lyp/6-311+G(d,p)
 int=grid=ultrafine EmpiricalDispersion=GD3BJ SCRF=(Solvent=ethanol) sc
 f=(xqc,intrep,maxconventionalcycle=350) nosymm
 ----------------------------------------------------------------------

 Structure from the checkpoint file:  "/scratch1/svicchi/G09-1868861.pbs02/02-freq/IMIDCN-isolated-freq.chk"
 ---------------
 IMIDCN-isolated
 ---------------
 Charge = -1 Multiplicity = 1

                          Input orientation:
 ---------------------------------------------------------------------
 Center     Atomic      Atomic             Coordinates (Angstroms)
 Number     Number       Type             X           Y           Z
 ---------------------------------------------------------------------
      1          6           0       -2.041527    3.402461    0.149387
      2          7           0       -1.148959    2.379810    0.121396
      3          6           0       -1.890097    1.344072   -0.350038
      4          6           0       -3.197792    1.780852   -0.587329
      5          1           0       -1.464845    0.360285   -0.495161
      6          7           0       -3.296754    3.097193   -0.268285
      7          1           0       -4.044009    1.221578   -0.962749
      8          6           0       -1.687186    4.702063    0.589713
      9          7           0       -1.396732    5.766724    0.950395
 ---------------------------------------------------------------------

 SCF Done:  E(RB3LYP) =  -318.106245062     A.U. after    1 cycles

 Alpha  occ. eigenvalues --  -14.30457 -14.28610 -14.28607 -10.21035 -10.20746
 Alpha  occ. eigenvalues --  -10.16765 -10.16712  -0.97598  -0.90272  -0.82588
 Alpha  occ. eigenvalues --   -0.73218  -0.60741  -0.56366  -0.48952  -0.42272
 Alpha  occ. eigenvalues --   -0.41370  -0.40955  -0.36916  -0.34436  -0.33571
 Alpha  occ. eigenvalues --   -0.29041  -0.25756  -0.25406  -0.20946
 Alpha virt. eigenvalues --   -0.00675   0.01212   0.02654   0.02877   0.04281
 Alpha virt. eigenvalues --    0.05486   0.05587   0.05815   0.06730   0.08244
 Alpha virt. eigenvalues --    0.09093   0.09548   0.11235   0.11336   0.12438

 Mulliken charges:
               1
     1  C    1.193367
     2  N   -0.321934
     3  C   -0.052396
     4  C   -0.052562
     5  H    0.113507
     6  N   -0.321875
     7  H    0.113533
     8  C   -1.296600
     9  N   -0.375040
 Sum of Mulliken charges =  -1.00000

 Dipole moment (field-independent basis, Debye):
    X=              8.9707    Y=            -19.4087    Z=             -1.7621  Tot=             21.4541
 Quadrupole moment (field-independent basis, Debye-Ang):
   XX=            -68.3534   YY=           -131.7061   ZZ=            -46.0456
   XY=             36.2396   XZ=              1.2979   YZ=             -9.5210

  Exact polarizability:      90.171      12.799     140.346      12.516      25.611      66.354
 Approx polarizability:     105.251      15.479     166.498      15.783      31.755      74.440

                      1                      2                      3
                      A                      A                      A
 Frequencies --    172.6222               191.2350               535.3601
 Red. masses --      6.7307                 8.8526                11.0957
 Frc consts  --      0.1182                 0.1907                 1.8737
 IR Inten    --      0.1597                 1.4907                23.3534
 Raman Activ --      0.8337                10.0828                 9.0567

                      4                      5                      6
                      A                      A                      A
 Frequencies --    595.4894               595.8566               658.3347
 Red. masses --     11.2982                10.4520                 3.2837
 Frc consts  --      2.3605                 2.1864                 0.8385
 IR Inten    --      8.6087                16.8994                 0.0001
 Raman Activ --      9.3407                 3.1599                 0.0814

                      7                      8                      9
                      A                      A                      A
 Frequencies --    730.0842               791.7750               853.8435
 Red. masses --     12.7010                 1.1905                 1.4263
 Frc consts  --      3.9887                 0.4397                 0.6126
 IR Inten    --      3.8398                90.6301                 0.0013
 Raman Activ --      2.0128                25.8777                 5.3495

                     10                     11                     12
                      A                      A                      A
 Frequencies --    952.1700               982.5125              1098.0682
 Red. masses --      7.9183                 3.5959                 1.8186
 Frc consts  --      4.2297                 2.0452                 1.2919
 IR Inten    --     15.6062                22.0635                 2.7615
 Raman Activ --      6.8054                35.3387               107.5929

                     13                     14                     15
                      A                      A                      A
 Frequencies --   1173.4150              1211.2525              1317.4590
 Red. masses --      1.6042                 9.8563                11.3129
 Frc consts  --      1.3014                 8.5199                11.5690
 IR Inten    --     60.4765                45.5236                35.3748
 Raman Activ --      2.4534               256.0084                19.4679

                     16                     17                     18
                      A                      A                      A
 Frequencies --   1373.4512              1432.5023              1440.8349
 Red. masses --      7.0975                 2.9774                 3.4385
 Frc consts  --      7.8883                 3.5997                 4.2058
 IR Inten    --     34.6447                63.8621                 6.9788
 Raman Activ --    439.4063                 8.8899                89.7414

                     19                     20                     21
                      A                      A                      A
 Frequencies --   2279.6806              3194.7781              3214.4737
 Red. masses --     12.6701                 1.0888                 1.1025
 Frc consts  --     38.7952                 6.5475                 6.7122
 IR Inten    --    580.9523                 9.9025                46.2359
 Raman Activ --   1860.3398               196.9019               346.9112

 - Thermochemistry -
 -------------------
 Temperature   298.150 Kelvin.  Pressure   1.00000 Atm.
 Thermochemistry will use frequencies scaled by 0.9670.

 Molecular mass:    92.02487 amu.
 Principal axes and moments of inertia in atomic units:
                           1         2         3
     Eigenvalues --   187.63718 856.517581044.15408
           X            0.25033   0.93473  -0.25223
           Y            0.91733  -0.31230  -0.24693
           Z            0.30959   0.16956   0.93563
 This molecule is an asymmetric top.
 Rotational symmetry number  1.
 Rotational temperatures (Kelvin)      0.46160     0.10112     0.08295
 Rotational constants (GHZ):           9.61825     2.10707     1.72842
 Zero-point vibrational energy     143414.1 (Joules/Mol)
                                   34.27678 (Kcal/Mol)
 Warning -- explicit consideration of   5 degrees of freedom as
           vibrations may cause significant error
 Vibrational temperatures:    240.17   266.06   744.85   828.50   829.01
          (Kelvin)            915.94  1015.76  1101.59  1187.95  1324.75
                             1366.97  1527.74  1632.57  1685.21  1832.98
                             1910.88  1993.04  2004.63  3171.71  4444.89
                             4472.29

 Zero-point correction=                           0.054624 (Hartree/Particle)
 Thermal correction to Energy=                    0.059828
 Thermal correction to Enthalpy=                  0.060772
 Thermal correction to Gibbs Free Energy=         0.025582
 Sum of electronic and zero-point Energies=           -318.051622
 Sum of electronic and thermal Energies=              -318.046418
 Sum of electronic and thermal Enthalpies=            -318.045473
 Sum of electronic and thermal Free Energies=         -318.080663

                     E (Thermal)             CV                S
                      KCal/Mol        Cal/Mol-Kelvin    Cal/Mol-Kelvin
 Total                   37.542             18.393             74.063
 Electronic               0.000              0.000              0.000
 Translational            0.889              2.981             39.470
 Rotational               0.889              2.981             26.620
 Vibrational             35.765             12.431              7.972
 Vibration     1          0.624              1.883              2.470
 Vibration     2          0.631              1.860              2.278
 Vibration     3          0.873              1.211              0.615
 Vibration     4          0.932              1.084              0.493
 Vibration     5          0.933              1.083              0.492

 Normal termination of Gaussian 16 at Thu Jan 11 14:25:49 2024.
