 Gaussian 16, Revision C.01,
 Gaussian 16:  ES64L-G16RevC.01  3-Jul-2019

 ----------------------------------------------------------------------
 #p freq=raman scale=0.967 pop=(nbo,full,hirshfeld) guess=read geom=all
 check b3lyp/6-311+G(d,p) int=grid=ultrafine EmpiricalDispersion=GD3BJ
 SCRF=(Solvent=ethanol) scf=(xqc,intrep,maxconventionalcycle=350) nosym
 m
 ----------------------------------------------------------------------

 Structure from the checkpoint file:  "/scratch1/svicchi/G09-659831.pbs02/02-freq/indazolide-CO2_binding-site_index-0-freq.chk"
 ---------------------------------------
 indazolide-CO2_binding-site_index-0.gjf
 ---------------------------------------
 Charge = -1 Multiplicity = 1

                          Input orientation:
 ---------------------------------------------------------------------
 Center     Atomic      Atomic             Coordinates (Angstroms)
 Number     Number       Type             X           Y           Z
 ---------------------------------------------------------------------
      1          7           0       -1.564350   -1.102353    0.051949
      2          7           0       -2.380446   -0.012221    0.165827
      3          6           0       -0.238701   -0.716640   -0.008201
      4          6           0       -0.230892    0.698876    0.073280
      5          6           0        0.958949   -1.440995   -0.125956
      6          6           0        0.980034    1.410243    0.037775
      7          6           0       -1.609103    1.054500    0.179959
      8          6           0        2.140175   -0.716590   -0.158943
      9          6           0        2.158355    0.694148   -0.078393
     10          1           0        0.942269   -2.517947   -0.187242
     11          1           0        0.986811    2.492377    0.099848
     12          1           0       -2.044948    2.039753    0.264680
     13          1           0        3.080246   -1.249187   -0.249419
     14          1           0        3.108152    1.215050   -0.108507
     15          6           0       -2.121560   -2.479901    0.002808
     16          8           0       -1.248860   -3.362388   -0.091435
     17          8           0       -3.356112   -2.558922    0.061040
 ---------------------------------------------------------------------

 SCF Done:  E(RB3LYP) =  -568.169792267     A.U. after    1 cycles

 Alpha  occ. eigenvalues --  -19.06556 -19.06529 -14.37346 -14.33731 -10.28699
 Alpha  occ. eigenvalues --  -10.21047 -10.19544 -10.18047 -10.17766 -10.17663
 Alpha  occ. eigenvalues --  -10.17455 -10.17301  -1.06188  -1.01652  -0.95510
 Alpha  occ. eigenvalues --   -0.85631  -0.82125  -0.75881  -0.74429  -0.63418
 Alpha  occ. eigenvalues --   -0.62115  -0.60170  -0.55029  -0.50103  -0.47724
 Alpha  occ. eigenvalues --   -0.46298  -0.46013  -0.44806  -0.43164  -0.42134
 Alpha  occ. eigenvalues --   -0.40957  -0.39565  -0.37179  -0.35037  -0.34687
 Alpha  occ. eigenvalues --   -0.29711  -0.29257  -0.27071  -0.26043  -0.24624
 Alpha  occ. eigenvalues --   -0.24215  -0.22530
 Alpha virt. eigenvalues --   -0.03927  -0.00241   0.01048   0.02332   0.02644
 Alpha virt. eigenvalues --    0.02861   0.04340   0.04834   0.05085   0.05178
 Alpha virt. eigenvalues --    0.07254   0.07283   0.07418   0.08008   0.08957

 Mulliken charges:
               1
     1  N    0.016505
     2  N   -0.283300
     3  C   -0.336255
     4  C    1.490017
     5  C   -0.050179
     6  C   -1.391213
     7  C   -0.016777
     8  C   -0.477033
     9  C   -0.003197
    10  H    0.162929
    11  H    0.142695
    12  H    0.141997
    13  H    0.144787
    14  H    0.142306
    15  C    0.355677
    16  O   -0.525219
    17  O   -0.513740
 Sum of Mulliken charges =  -1.00000

 Dipole moment (field-independent basis, Debye):
    X=             12.8840    Y=             13.2560    Z=             -0.1010  Tot=             18.4859
 Quadrupole moment (field-independent basis, Debye-Ang):
   XX=           -108.8238   YY=           -106.6890   ZZ=            -73.6095
   XY=            -30.4351   XZ=              0.5009   YZ=              0.1829

  Exact polarizability:     216.660      10.806     182.370      -7.342       4.863      87.072
 Approx polarizability:     254.285       5.254     215.415      -9.199       6.378      99.407

 Summary of Natural Population Analysis:

                                       Natural Population
                Natural  -----------------------------------------------
    Atom  No    Charge         Core      Valence    Rydberg      Total
 -----------------------------------------------------------------------
      N    1   -0.30742      1.99918     5.27541    0.03283     7.30742
      N    2   -0.27675      1.99945     5.25390    0.02340     7.27675
      C    3    0.16301      1.99896     3.81741    0.02063     5.83699
      C    4   -0.14591      1.99899     4.13071    0.01621     6.14591
      C    5   -0.22923      1.99906     4.21223    0.01794     6.22923
      C    6   -0.18603      1.99909     4.16982    0.01713     6.18603
      C    7   -0.01124      1.99922     3.98351    0.02851     6.01124
      C    8   -0.20658      1.99918     4.18920    0.01820     6.20658
      C    9   -0.23807      1.99918     4.21984    0.01906     6.23807
      H   10    0.24151      0.00000     0.75655    0.00194     0.75849
      H   11    0.21701      0.00000     0.78140    0.00158     0.78299
      H   12    0.21040      0.00000     0.78810    0.00150     0.78960
      H   13    0.21195      0.00000     0.78673    0.00132     0.78805
      H   14    0.21243      0.00000     0.78618    0.00139     0.78757
      C   15    0.91332      1.99959     3.02710    0.05998     5.08668
      O   16   -0.79368      1.99976     6.77806    0.01586     8.79368
      O   17   -0.77472      1.99975     6.76189    0.01308     8.77472
 =======================================================================
   * Total *   -1.00000     23.99140    59.71802    0.29057    84.00000

                      1                      2                      3
                      A                      A                      A
 Frequencies --     54.7892                97.9552               196.6922
 Red. masses --     12.2570                 5.9417                 8.4753
 Frc consts  --      0.0217                 0.0336                 0.1932
 IR Inten    --      0.0385                 2.8864                 6.0321
 Raman Activ --      0.1656                 5.8194                 0.6880

                      4                      5                      6
                      A                      A                      A
 Frequencies --    218.1403               270.1248               370.3489
 Red. masses --      5.5670                 4.8517                 9.8501
 Frc consts  --      0.1561                 0.2086                 0.7960
 IR Inten    --      0.2480                 0.0185                 1.2769
 Raman Activ --      0.7988                 0.0994                 9.8910

                      7                      8                      9
                      A                      A                      A
 Frequencies --    397.7006               435.8389               515.0209
 Red. masses --      7.2799                 3.0150                 6.1626
 Frc consts  --      0.6784                 0.3374                 0.9631
 IR Inten    --     14.5415                 7.6839                 0.1985
 Raman Activ --      2.4489                 0.9505                 5.9304

                     10                     11                     12
                      A                      A                      A
 Frequencies --    576.2956               608.8138               641.3011
 Red. masses --      3.7473                 8.2953                 5.9366
 Frc consts  --      0.7333                 1.8115                 1.4385
 IR Inten    --      0.9738                16.0823                24.9057
 Raman Activ --      0.6939                 3.0719                 1.0386

                     13                     14                     15
                      A                      A                      A
 Frequencies --    653.6535               755.1883               759.3347
 Red. masses --      7.2623                 3.5237                 1.3554
 Frc consts  --      1.8282                 1.1840                 0.4605
 IR Inten    --      4.2606                23.8510                73.5515
 Raman Activ --     17.1669                 2.1838                 6.2582

                     16                     17                     18
                      A                      A                      A
 Frequencies --    767.8818               791.6560               792.6330
 Red. masses --     11.8987                12.2222                 6.2182
 Frc consts  --      4.1337                 4.5131                 2.3017
 IR Inten    --    477.1096                40.7680                18.5739
 Raman Activ --      7.2944                 1.8461                86.8658

                     19                     20                     21
                      A                      A                      A
 Frequencies --    853.9390               875.1677               918.4419
 Red. masses --      1.2845                 1.4662                 4.8407
 Frc consts  --      0.5519                 0.6617                 2.4058
 IR Inten    --     36.9080                 1.6895                53.6461
 Raman Activ --      0.7079                 9.1624                 6.3063

                     22                     23                     24
                      A                      A                      A
 Frequencies --    966.1021               998.0194              1024.6286
 Red. masses --      1.3565                 1.2676                 2.0329
 Frc consts  --      0.7460                 0.7439                 1.2575
 IR Inten    --      3.7603                 0.3943                36.7524
 Raman Activ --      3.5512                 1.7769                68.5307

                     25                     26                     27
                      A                      A                      A
 Frequencies --   1050.7952              1128.2608              1149.7700
 Red. masses --      5.5208                 2.2719                 1.8816
 Frc consts  --      3.5916                 1.7039                 1.4656
 IR Inten    --     18.9516                96.6388               311.3296
 Raman Activ --     17.5586                18.2939                78.2387

                     28                     29                     30
                      A                      A                      A
 Frequencies --   1164.1378              1218.7641              1275.2134
 Red. masses --      1.4018                 1.6510                 3.6026
 Frc consts  --      1.1193                 1.4449                 3.4517
 IR Inten    --     26.1635               165.0715               407.1600
 Raman Activ --     29.1638                28.2740                58.0830

                     31                     32                     33
                      A                      A                      A
 Frequencies --   1290.1633              1340.3764              1342.8393
 Red. masses --      3.3989                 4.9170                 2.2944
 Frc consts  --      3.3333                 5.2048                 2.4376
 IR Inten    --    335.2377                14.9779                80.5616
 Raman Activ --     47.6852               117.2030                14.6174

                     34                     35                     36
                      A                      A                      A
 Frequencies --   1392.3530              1437.2237              1494.2912
 Red. masses --      5.3529                 3.4086                 3.0129
 Frc consts  --      6.1142                 4.1484                 3.9638
 IR Inten    --     22.5089                22.9873                48.4949
 Raman Activ --    106.6934               157.4542                76.0379

                     37                     38                     39
                      A                      A                      A
 Frequencies --   1527.5531              1606.1516              1647.4632
 Red. masses --      3.6756                 6.5688                 6.8129
 Frc consts  --      5.0532                 9.9840                10.8946
 IR Inten    --     29.6733                 7.2781                18.5280
 Raman Activ --    131.9550                91.4513                22.6032

                     40                     41                     42
                      A                      A                      A
 Frequencies --   1706.8039              3165.9940              3175.5413
 Red. masses --     12.6174                 1.0864                 1.0904
 Frc consts  --     21.6564                 6.4158                 6.4783
 IR Inten    --   1127.8305                 2.5970                25.4626
 Raman Activ --     24.6950               150.1938               226.0871

                     43                     44                     45
                      A                      A                      A
 Frequencies --   3188.9483              3220.8641              3240.4504
 Red. masses --      1.0964                 1.0965                 1.0926
 Frc consts  --      6.5692                 6.7018                 6.7594
 IR Inten    --     35.7704                12.5488                 5.2771
 Raman Activ --    523.7994               304.3178               227.9179

 - Thermochemistry -
 -------------------
 Temperature   298.150 Kelvin.  Pressure   1.00000 Atm.
 Thermochemistry will use frequencies scaled by 0.9670.

 Molecular mass:   161.03510 amu.
 Principal axes and moments of inertia in atomic units:
                           1         2         3
     Eigenvalues --   877.551562297.491053175.00528
           X            0.80721  -0.58711   0.06100
           Y            0.59007   0.80528  -0.05779
           Z           -0.01519   0.08264   0.99646
 This molecule is an asymmetric top.
 Rotational symmetry number  1.
 Warning -- assumption of classical behavior for rotation
           may cause significant error
 Rotational temperatures (Kelvin)      0.09870     0.03770     0.02728
 Rotational constants (GHZ):           2.05656     0.78553     0.56842
 Zero-point vibrational energy     302521.3 (Joules/Mol)
                                   72.30432 (Kcal/Mol)
 Warning -- explicit consideration of  12 degrees of freedom as
           vibrations may cause significant error
 Vibrational temperatures:     76.23   136.28   273.66   303.50   375.82
          (Kelvin)            515.27   553.32   606.38   716.55   801.80
                              847.04   892.24   909.43  1050.69  1056.46
                             1068.35  1101.43  1102.79  1188.08  1217.62
                             1277.83  1344.14  1388.54  1425.56  1461.97
                             1569.75  1599.67  1619.66  1695.66  1774.20
                             1795.00  1864.86  1868.29  1937.18  1999.61
                             2079.00  2125.28  2234.63  2292.11  2374.67
                             4404.84  4418.12  4436.78  4481.18  4508.43

 Zero-point correction=                           0.115224 (Hartree/Particle)
 Thermal correction to Energy=                    0.124068
 Thermal correction to Enthalpy=                  0.125012
 Thermal correction to Gibbs Free Energy=         0.080489
 Sum of electronic and zero-point Energies=           -568.054568
 Sum of electronic and thermal Energies=              -568.045725
 Sum of electronic and thermal Enthalpies=            -568.044780
 Sum of electronic and thermal Free Energies=         -568.089303

                     E (Thermal)             CV                S
                      KCal/Mol        Cal/Mol-Kelvin    Cal/Mol-Kelvin
 Total                   77.854             34.475             93.706
 Electronic               0.000              0.000              0.000
 Translational            0.889              2.981             41.138
 Rotational               0.889              2.981             30.238
 Vibrational             76.076             28.514             22.329
 Vibration     1          0.596              1.976              4.703
 Vibration     2          0.603              1.953              3.560
 Vibration     3          0.634              1.853              2.226
 Vibration     4          0.643              1.824              2.036
 Vibration     5          0.669              1.744              1.654
 Vibration     6          0.733              1.559              1.130
 Vibration     7          0.754              1.503              1.021
 Vibration     8          0.784              1.424              0.887
 Vibration     9          0.854              1.254              0.663
 Vibration    10          0.913              1.124              0.529
 Vibration    11          0.946              1.056              0.469
 Vibration    12          0.980              0.989              0.416

 Optimization completed.
    -- Stationary point found.
 Normal termination of Gaussian 16 at Fri Jun  2 13:02:31 2023.
