 Gaussian 16, Revision C.02,
 Gaussian 16:  ES64L-G16RevC.02  7-Dec-2021

 ----------------------------------------------------------------------
 #p freq=raman scale=0.967 guess=read geom=allcheck b3lyp/6-311+G(d,p)
 int=grid=ultrafine EmpiricalDispersion=GD3BJ SCRF=(Solvent=ethanol) sc
 f=(xqc,intrep,maxconventionalcycle=350) nosymm
 ----------------------------------------------------------------------

 Structure from the checkpoint file:  "/scratch1/svicchi/G09-1734036.pbs02/02-freq/PyrCHO-isolated-freq.chk"
 ---------------
 PyrCHO-isolated
 ---------------
 Charge = -1 Multiplicity = 1

                          Input orientation:
 ---------------------------------------------------------------------
 Center     Atomic      Atomic             Coordinates (Angstroms)
 Number     Number       Type             X           Y           Z
 ---------------------------------------------------------------------
      1          6           0       -0.335738    0.695308    0.146236
      2          6           0       -1.181648   -0.331139   -0.358261
      3          6           0       -0.342039   -1.400978   -0.662541
      4          1           0       -2.255950   -0.282588   -0.478286
      5          6           0        0.971067   -0.973982   -0.328540
      6          7           0        0.949950    0.322087    0.168178
      7          1           0       -0.638900    1.679428    0.486530
      8          6           0        2.205320   -1.673212   -0.437194
      9          1           0       -0.618501   -2.363177   -1.069912
     10          8           0        2.382008   -2.830217   -0.856606
     11          1           0        3.080330   -1.081103   -0.098514
 ---------------------------------------------------------------------

 SCF Done:  E(RB3LYP) =  -323.139325907     A.U. after    1 cycles

 Alpha  occ. eigenvalues --  -19.08390 -14.27053 -10.22468 -10.16077 -10.15413
 Alpha  occ. eigenvalues --  -10.14218 -10.13940  -1.00413  -0.91483  -0.72770
 Alpha  occ. eigenvalues --   -0.70890  -0.60024  -0.53365  -0.50104  -0.47639
 Alpha  occ. eigenvalues --   -0.42788  -0.38872  -0.38744  -0.36386  -0.36114
 Alpha  occ. eigenvalues --   -0.34278  -0.25197  -0.23822  -0.21867  -0.19603
 Alpha virt. eigenvalues --   -0.02587   0.01579   0.03061   0.03723   0.05197
 Alpha virt. eigenvalues --    0.05338   0.05711   0.06567   0.07148   0.08255
 Alpha virt. eigenvalues --    0.09776   0.09957   0.10304   0.12765   0.12817

 Mulliken charges:
               1
     1  C   -0.143341
     2  C   -0.250908
     3  C   -0.162133
     4  H    0.112303
     5  C    0.194782
     6  N   -0.322858
     7  H    0.104428
     8  C   -0.249933
     9  H    0.113888
    10  O   -0.494269
    11  H    0.098041
 Sum of Mulliken charges =  -1.00000

 Dipole moment (field-independent basis, Debye):
    X=             -6.5171    Y=              5.7761    Z=              1.7486  Tot=              8.8822
 Quadrupole moment (field-independent basis, Debye-Ang):
   XX=            -56.9986   YY=            -64.6500   ZZ=            -48.3938
   XY=             12.8679   XZ=              4.0984   YZ=             -5.7068

  Exact polarizability:     143.269     -31.768     126.663      -2.030      19.884      71.679
 Approx polarizability:     164.035     -40.854     149.181      -3.522      25.279      78.936

                      1                      2                      3
                      A                      A                      A
 Frequencies --    160.6089               222.1308               293.9707
 Red. masses --      5.4492                 5.7748                 2.3076
 Frc consts  --      0.0828                 0.1679                 0.1175
 IR Inten    --      1.0612                13.0276                37.9862
 Raman Activ --      2.8570                 1.3703                 3.2176

                      4                      5                      6
                      A                      A                      A
 Frequencies --    526.1774               627.8898               676.6480
 Red. masses --      8.7684                 2.7645                 4.1453
 Frc consts  --      1.4303                 0.6422                 1.1182
 IR Inten    --      4.2049                23.0135                 3.0598
 Raman Activ --     36.5677                 0.7396                 1.1765

                      7                      8                      9
                      A                      A                      A
 Frequencies --    746.7336               759.5001               822.4354
 Red. masses --      1.3994                 4.9665                 1.2904
 Frc consts  --      0.4598                 1.6879                 0.5143
 IR Inten    --    118.6424               139.5575                 6.4359
 Raman Activ --     27.4273                17.5437                29.4132

                     10                     11                     12
                      A                      A                      A
 Frequencies --    875.5769               903.3706               955.7447
 Red. masses --      1.3652                 5.7091                 2.7077
 Frc consts  --      0.6166                 2.7451                 1.4573
 IR Inten    --      5.1767                 6.8158                28.8940
 Raman Activ --      0.1462                14.7011                36.6478

                     13                     14                     15
                      A                      A                      A
 Frequencies --   1010.7176              1033.5962              1076.9474
 Red. masses --      1.7123                 1.2557                 2.2436
 Frc consts  --      1.0306                 0.7904                 1.5332
 IR Inten    --      0.0581                98.2605                28.5574
 Raman Activ --      6.2123                15.2369               152.4788

                     16                     17                     18
                      A                      A                      A
 Frequencies --   1204.2221              1275.8087              1323.6780
 Red. masses --      1.8259                 3.6833                 3.4638
 Frc consts  --      1.5601                 3.5323                 3.5758
 IR Inten    --    147.1786               138.8583               101.2272
 Raman Activ --     20.3434                48.6479               123.9216

                     19                     20                     21
                      A                      A                      A
 Frequencies --   1374.6673              1411.8770              1469.9148
 Red. masses --      2.2858                 1.8150                 3.7761
 Frc consts  --      2.5449                 2.1316                 4.8070
 IR Inten    --    327.1911                 9.1482                61.0547
 Raman Activ --    348.3700                29.6834                12.6671

                     22                     23                     24
                      A                      A                      A
 Frequencies --   1505.8018              1626.5524              2888.1506
 Red. masses --      5.2145                 6.6424                 1.0801
 Frc consts  --      6.9662                10.3541                 5.3082
 IR Inten    --     88.4946              1374.1514               235.8225
 Raman Activ --     42.3466               403.3315               385.9905

                     25                     26                     27
                      A                      A                      A
 Frequencies --   3162.3198              3195.3196              3218.0333
 Red. masses --      1.0905                 1.0922                 1.1010
 Frc consts  --      6.4250                 6.5705                 6.7176
 IR Inten    --     40.8168                36.6510                23.7275
 Raman Activ --    257.3217               264.1997               296.3491

 - Thermochemistry -
 -------------------
 Temperature   298.150 Kelvin.  Pressure   1.00000 Atm.
 Thermochemistry will use frequencies scaled by 0.9670.

 Molecular mass:    94.02929 amu.
 Principal axes and moments of inertia in atomic units:
                           1         2         3
     Eigenvalues --   221.35043 880.141301101.49098
           X            0.73464   0.66776  -0.11998
           Y           -0.65968   0.66175  -0.35624
           Z           -0.15849   0.34086   0.92666
 This molecule is an asymmetric top.
 Rotational symmetry number  1.
 Rotational temperatures (Kelvin)      0.39130     0.09841     0.07863
 Rotational constants (GHZ):           8.15332     2.05051     1.63845
 Zero-point vibrational energy     198669.2 (Joules/Mol)
                                   47.48308 (Kcal/Mol)
 Warning -- explicit consideration of   5 degrees of freedom as
           vibrations may cause significant error
 Vibrational temperatures:    223.45   309.05   409.00   732.07   873.58
          (Kelvin)            941.42  1038.93  1056.69  1144.25  1218.19
                             1256.86  1329.72  1406.21  1438.04  1498.35
                             1675.43  1775.03  1841.63  1912.57  1964.34
                             2045.09  2095.02  2263.02  4018.28  4399.73
                             4445.64  4477.24

 Zero-point correction=                           0.075669 (Hartree/Particle)
 Thermal correction to Energy=                    0.081268
 Thermal correction to Enthalpy=                  0.082212
 Thermal correction to Gibbs Free Energy=         0.046272
 Sum of electronic and zero-point Energies=           -323.063657
 Sum of electronic and thermal Energies=              -323.058058
 Sum of electronic and thermal Enthalpies=            -323.057114
 Sum of electronic and thermal Free Energies=         -323.093054

                     E (Thermal)             CV                S
                      KCal/Mol        Cal/Mol-Kelvin    Cal/Mol-Kelvin
 Total                   50.996             20.522             75.642
 Electronic               0.000              0.000              0.000
 Translational            0.889              2.981             39.534
 Rotational               0.889              2.981             26.864
 Vibrational             49.219             14.560              9.243
 Vibration     1          0.620              1.897              2.606
 Vibration     2          0.645              1.818              2.002
 Vibration     3          0.683              1.703              1.508
 Vibration     4          0.864              1.230              0.636
 Vibration     5          0.966              1.017              0.437

 Optimization completed.
    -- Stationary point found.
 Normal termination of Gaussian 16 at Thu Dec 14 12:34:41 2023.
