 Gaussian 16, Revision C.01,
 Gaussian 16:  ES64L-G16RevC.01  3-Jul-2019

 ----------------------------------------------------------------------
 #p freq=raman scale=0.967 pop=(nbo,full,hirshfeld) guess=read geom=all
 check b3lyp/6-311+G(d,p) int=grid=ultrafine EmpiricalDispersion=GD3BJ
 SCRF=(Solvent=ethanol) scf=(xqc,intrep,maxconventionalcycle=350) nosym
 m
 ----------------------------------------------------------------------

 Structure from the checkpoint file:  "/scratch1/svicchi/G09-659892.pbs02/02-freq/PDA-H_dissociation-site_index-5-freq.chk"
 -----------------------------------
 PDA-H_dissociation-site_index-5.gjf
 -----------------------------------
 Charge = -1 Multiplicity = 1

                          Input orientation:
 ---------------------------------------------------------------------
 Center     Atomic      Atomic             Coordinates (Angstroms)
 Number     Number       Type             X           Y           Z
 ---------------------------------------------------------------------
      1          6           0       -3.452796    0.820428    0.104991
      2          6           0       -2.143226    1.612879    0.027298
      3          6           0       -0.887433    0.745017   -0.088019
      4          1           0       -2.066546    2.247923    0.919900
      5          1           0       -2.195976    2.296098   -0.831132
      6          7           0       -4.605399    1.701098    0.215575
      7          1           0       -3.334833    0.113216    0.959600
      8          1           0       -3.466762    0.156716   -0.792285
      9          1           0       -5.433268    1.104973    0.290918
     10          6           0        0.412526    1.552033   -0.128061
     11          1           0       -0.954986    0.124029   -0.990564
     12          1           0       -0.849026    0.048257    0.759563
     13          6           0        1.658562    0.677790   -0.236121
     14          7           0        2.883834    1.496328   -0.256144
     15          1           0        1.566885    0.031468   -1.122494
     16          1           0        1.714231    0.015151    0.633799
     17          1           0        0.492206    2.172494    0.772110
     18          1           0        0.385771    2.243163   -0.980948
     19          1           0        2.893398    2.077407   -1.090401
     20          1           0        3.702757    0.898689   -0.319885
 ---------------------------------------------------------------------

 SCF Done:  E(RB3LYP) =  -308.041339592     A.U. after    1 cycles

 Alpha  occ. eigenvalues --  -14.29194 -14.18576 -10.18473 -10.15421 -10.14952
 Alpha  occ. eigenvalues --  -10.14522 -10.13487  -0.87921  -0.79155  -0.75963
 Alpha  occ. eigenvalues --   -0.69350  -0.61624  -0.57303  -0.53990  -0.48579
 Alpha  occ. eigenvalues --   -0.46411  -0.44344  -0.41840  -0.39653  -0.37185
 Alpha  occ. eigenvalues --   -0.36654  -0.35058  -0.32667  -0.31711  -0.30520
 Alpha  occ. eigenvalues --   -0.29618  -0.24574  -0.20022  -0.12919
 Alpha virt. eigenvalues --    0.00875   0.02008   0.02560   0.03605   0.03726
 Alpha virt. eigenvalues --    0.05132   0.06220   0.06664   0.07096   0.07694
 Alpha virt. eigenvalues --    0.08927   0.09675   0.10679   0.11013   0.11504

 Mulliken charges:
               1
     1  C   -0.440189
     2  C   -0.004010
     3  C   -0.204495
     4  H    0.115068
     5  H    0.115417
     6  N   -1.049739
     7  H    0.065283
     8  H    0.064147
     9  H    0.154154
    10  C   -0.225341
    11  H    0.127078
    12  H    0.127202
    13  C   -0.334419
    14  N   -0.510859
    15  H    0.127069
    16  H    0.136727
    17  H    0.136857
    18  H    0.127225
    19  H    0.227154
    20  H    0.245670
 Sum of Mulliken charges =  -1.00000

 Dipole moment (field-independent basis, Debye):
    X=             20.9061    Y=            -10.7875    Z=             -2.4223  Tot=             23.6496
 Quadrupole moment (field-independent basis, Debye-Ang):
   XX=           -146.1548   YY=            -75.5906   ZZ=            -52.6548
   XY=             41.1818   XZ=             -0.3786   YZ=             -5.5645

  Exact polarizability:     128.945      -5.112     120.299       0.086       1.777     122.339
 Approx polarizability:     119.628      -3.481     122.612       0.555       0.515     123.124

 Summary of Natural Population Analysis:

                                       Natural Population
                Natural  -----------------------------------------------
    Atom  No    Charge         Core      Valence    Rydberg      Total
 -----------------------------------------------------------------------
      C    1   -0.18191      1.99935     4.15829    0.02427     6.18191
      C    2   -0.38818      1.99928     4.36354    0.02535     6.38818
      C    3   -0.38091      1.99927     4.36772    0.01392     6.38091
      H    4    0.17489      0.00000     0.82103    0.00408     0.82511
      H    5    0.17489      0.00000     0.82114    0.00397     0.82511
      N    6   -1.26313      1.99961     6.22566    0.03786     8.26313
      H    7    0.10780      0.00000     0.88759    0.00461     0.89220
      H    8    0.10626      0.00000     0.88904    0.00470     0.89374
      H    9    0.28862      0.00000     0.70664    0.00474     0.71138
      C   10   -0.38753      1.99928     4.37305    0.01520     6.38753
      H   11    0.18565      0.00000     0.81146    0.00289     0.81435
      H   12    0.18550      0.00000     0.81168    0.00281     0.81450
      C   13   -0.17854      1.99930     4.16173    0.01751     6.17854
      N   14   -0.87339      1.99954     5.85208    0.02177     7.87339
      H   15    0.15934      0.00000     0.83782    0.00284     0.84066
      H   16    0.17947      0.00000     0.81821    0.00232     0.82053
      H   17    0.19207      0.00000     0.80530    0.00263     0.80793
      H   18    0.18682      0.00000     0.81092    0.00226     0.81318
      H   19    0.35333      0.00000     0.64376    0.00291     0.64667
      H   20    0.35896      0.00000     0.63868    0.00237     0.64104
 =======================================================================
   * Total *   -1.00000     13.99563    43.80536    0.19902    58.00000

                      1                      2                      3
                      A                      A                      A
 Frequencies --     68.6820                71.6252               111.8861
 Red. masses --      3.2869                 1.8722                 3.6175
 Frc consts  --      0.0091                 0.0057                 0.0267
 IR Inten    --     15.3471                 8.0141                14.3687
 Raman Activ --      0.1324                 3.8150                 1.1759

                      4                      5                      6
                      A                      A                      A
 Frequencies --    138.0765               146.1130               239.0561
 Red. masses --      1.9695                 2.4977                 1.2513
 Frc consts  --      0.0221                 0.0314                 0.0421
 IR Inten    --     14.4942                26.8636                41.1044
 Raman Activ --      2.1125                 2.3024                 1.4353

                      7                      8                      9
                      A                      A                      A
 Frequencies --    270.6456               280.3918               312.5851
 Red. masses --      1.1366                 2.2519                 4.6010
 Frc consts  --      0.0491                 0.1043                 0.2649
 IR Inten    --    180.0168                40.6090                 8.8065
 Raman Activ --    115.6557                13.2632                 8.7108

                     10                     11                     12
                      A                      A                      A
 Frequencies --    458.3060               517.9136               738.9424
 Red. masses --      2.9560                 3.7549                 1.0673
 Frc consts  --      0.3658                 0.5934                 0.3434
 IR Inten    --      3.8806                60.7970                 2.7779
 Raman Activ --      1.7578                 0.6455                 0.9462

                     13                     14                     15
                      A                      A                      A
 Frequencies --    769.3945               837.0277               882.7632
 Red. masses --      1.1103                 1.1778                 1.2691
 Frc consts  --      0.3872                 0.4862                 0.5827
 IR Inten    --      4.8432                58.5065               128.9644
 Raman Activ --      3.8545                 3.2131                 8.9936

                     16                     17                     18
                      A                      A                      A
 Frequencies --    946.4517               980.4323               989.9276
 Red. masses --      2.5328                 1.3669                 3.4967
 Frc consts  --      1.3367                 0.7741                 2.0189
 IR Inten    --      0.5610                 9.7733                22.7190
 Raman Activ --      1.5564                 5.3153                 7.2595

                     19                     20                     21
                      A                      A                      A
 Frequencies --   1018.5278              1050.4217              1060.1266
 Red. masses --      2.8342                 3.1660                 2.2509
 Frc consts  --      1.7323                 2.0582                 1.4905
 IR Inten    --    138.5490                72.0155                 3.2368
 Raman Activ --     42.9485                 6.2634                 9.9643

                     22                     23                     24
                      A                      A                      A
 Frequencies --   1077.9590              1135.1820              1151.2384
 Red. masses --      2.7452                 1.5357                 1.2669
 Frc consts  --      1.8794                 1.1660                 0.9893
 IR Inten    --      8.9417                 1.1191                 7.8338
 Raman Activ --     19.2013                19.6596                10.8555

                     25                     26                     27
                      A                      A                      A
 Frequencies --   1191.2467              1230.1856              1257.3012
 Red. masses --      1.3360                 1.4663                 1.2811
 Frc consts  --      1.1170                 1.3074                 1.1932
 IR Inten    --     39.6946                11.4986                 4.4698
 Raman Activ --     11.2391                 9.3245                10.5160

                     28                     29                     30
                      A                      A                      A
 Frequencies --   1282.3654              1297.4166              1316.7698
 Red. masses --      1.2889                 1.1680                 1.1102
 Frc consts  --      1.2488                 1.1584                 1.1342
 IR Inten    --      4.1048                 5.3274                 0.4952
 Raman Activ --     13.4990                22.5706                16.2344

                     31                     32                     33
                      A                      A                      A
 Frequencies --   1325.4775              1338.9981              1381.5552
 Red. masses --      1.1162                 1.3109                 1.5061
 Frc consts  --      1.1554                 1.3848                 1.6937
 IR Inten    --      1.9197                 3.6494                16.2598
 Raman Activ --     14.7159                 3.6301                12.6843

                     34                     35                     36
                      A                      A                      A
 Frequencies --   1396.0138              1421.9402              1471.5636
 Red. masses --      1.5241                 1.4718                 1.0773
 Frc consts  --      1.7501                 1.7534                 1.3746
 IR Inten    --     61.6978                14.8522                 1.9291
 Raman Activ --     23.1159                 1.3323                79.5513

                     37                     38                     39
                      A                      A                      A
 Frequencies --   1478.6966              1493.1905              1504.7035
 Red. masses --      1.0842                 1.0934                 1.0957
 Frc consts  --      1.3968                 1.4363                 1.4617
 IR Inten    --      2.1034                19.2501                10.2067
 Raman Activ --      3.3933                38.5623                19.7553

                     40                     41                     42
                      A                      A                      A
 Frequencies --   1514.6016              1644.9402              2725.2155
 Red. masses --      1.0926                 1.0873                 1.0994
 Frc consts  --      1.4767                 1.7334                 4.8109
 IR Inten    --      2.8419                50.2665               265.1655
 Raman Activ --     11.0976                 4.9169               920.5212

                     43                     44                     45
                      A                      A                      A
 Frequencies --   2760.6774              2952.5787              2983.8602
 Red. masses --      1.0496                 1.0721                 1.0585
 Frc consts  --      4.7131                 5.5067                 5.5526
 IR Inten    --    556.3063               112.2223                41.4355
 Raman Activ --    535.1324               268.3039               293.5598

                     46                     47                     48
                      A                      A                      A
 Frequencies --   2989.8754              2996.2728              3006.0346
 Red. masses --      1.0586                 1.0658                 1.0945
 Frc consts  --      5.5758                 5.6376                 5.8273
 IR Inten    --     43.4317               135.6718                20.9514
 Raman Activ --    406.0140               191.9122               373.2986

                     49                     50                     51
                      A                      A                      A
 Frequencies --   3021.7975              3032.9047              3049.2944
 Red. masses --      1.0974                 1.0934                 1.1009
 Frc consts  --      5.9041                 5.9256                 6.0311
 IR Inten    --     67.6158                67.9521               217.7354
 Raman Activ --     38.5031               122.1464                49.3313

                     52                     53                     54
                      A                      A                      A
 Frequencies --   3386.0539              3485.1165              3557.5051
 Red. masses --      1.0730                 1.0504                 1.0923
 Frc consts  --      7.2481                 7.5171                 8.1448
 IR Inten    --    130.4054                 0.2859                 1.8924
 Raman Activ --    504.6738               257.2449               138.5527

 - Thermochemistry -
 -------------------
 Temperature   298.150 Kelvin.  Pressure   1.00000 Atm.
 Thermochemistry will use frequencies scaled by 0.9670.

 Molecular mass:   101.10787 amu.
 Principal axes and moments of inertia in atomic units:
                           1         2         3
     Eigenvalues --   131.157122460.856422531.54455
           X            0.99744   0.02152   0.06814
           Y           -0.02111   0.99976  -0.00662
           Z           -0.06827   0.00517   0.99765
 This molecule is an asymmetric top.
 Rotational symmetry number  1.
 Rotational temperatures (Kelvin)      0.66038     0.03520     0.03421
 Rotational constants (GHZ):          13.76015     0.73338     0.71290
 Zero-point vibrational energy     455473.1 (Joules/Mol)
                                  108.86068 (Kcal/Mol)
 Warning -- explicit consideration of  11 degrees of freedom as
           vibrations may cause significant error
 Vibrational temperatures:     95.56    99.65   155.67   192.11   203.29
          (Kelvin)            332.60   376.55   390.11   434.90   637.64
                              720.57  1028.09  1070.46  1164.55  1228.19
                             1316.80  1364.07  1377.28  1417.07  1461.45
                             1474.95  1499.76  1579.38  1601.71  1657.38
                             1711.55  1749.28  1784.15  1805.09  1832.02
                             1844.13  1862.94  1922.15  1942.27  1978.34
                             2047.38  2057.31  2077.47  2093.49  2107.26
                             2288.60  3791.59  3840.92  4107.91  4151.44
                             4159.81  4168.71  4182.29  4204.22  4219.67
                             4242.48  4711.01  4848.83  4949.55

 Zero-point correction=                           0.173481 (Hartree/Particle)
 Thermal correction to Energy=                    0.183160
 Thermal correction to Enthalpy=                  0.184104
 Thermal correction to Gibbs Free Energy=         0.138717
 Sum of electronic and zero-point Energies=           -307.867859
 Sum of electronic and thermal Energies=              -307.858180
 Sum of electronic and thermal Enthalpies=            -307.857236
 Sum of electronic and thermal Free Energies=         -307.902623

                     E (Thermal)             CV                S
                      KCal/Mol        Cal/Mol-Kelvin    Cal/Mol-Kelvin
 Total                  114.934             33.668             95.525
 Electronic               0.000              0.000              0.000
 Translational            0.889              2.981             39.751
 Rotational               0.889              2.981             28.193
 Vibrational            113.157             27.707             27.582
 Vibration     1          0.598              1.970              4.257
 Vibration     2          0.598              1.969              4.174
 Vibration     3          0.606              1.943              3.301
 Vibration     4          0.613              1.920              2.895
 Vibration     5          0.615              1.912              2.786
 Vibration     6          0.653              1.793              1.870
 Vibration     7          0.669              1.743              1.650
 Vibration     8          0.675              1.726              1.589
 Vibration     9          0.694              1.669              1.404
 Vibration    10          0.803              1.376              0.817
 Vibration    11          0.856              1.248              0.656

 Optimization completed.
    -- Stationary point found.
 Normal termination of Gaussian 16 at Fri Jun  2 12:59:43 2023.
