 Gaussian 16, Revision C.01,
 Gaussian 16:  ES64L-G16RevC.01  3-Jul-2019

 ----------------------------------------------------------------------
 #p freq=raman scale=0.967 pop=(nbo,full,hirshfeld) guess=read geom=all
 check b3lyp/6-311+G(d,p) int=grid=ultrafine EmpiricalDispersion=GD3BJ
 SCRF=(Solvent=ethanol) scf=(xqc,intrep,maxconventionalcycle=350) nosym
 m
 ----------------------------------------------------------------------

 Structure from the checkpoint file:  "/scratch1/svicchi/G09-659784.pbs02/02-freq/benzim-H_dissociation-site_index-6-freq.chk"
 --------------------------------------
 benzim-H_dissociation-site_index-6.gjf
 --------------------------------------
 Charge =  0 Multiplicity = 1

                          Input orientation:
 ---------------------------------------------------------------------
 Center     Atomic      Atomic             Coordinates (Angstroms)
 Number     Number       Type             X           Y           Z
 ---------------------------------------------------------------------
      1          6           0       -6.540949   -0.009563    0.000000
      2          6           0       -6.319955   -1.401320    0.000000
      3          6           0       -5.484574    0.895026   -0.000000
      4          6           0       -4.197917    0.356892   -0.000000
      5          6           0       -3.957885   -1.037988   -0.000000
      6          6           0       -5.035043   -1.930728   -0.000000
      7          7           0       -2.938555    0.928403    0.000000
      8          6           0       -2.029302   -0.095090    0.000000
      9          7           0       -2.587417   -1.283109   -0.000000
     10          1           0       -5.655953    1.964441   -0.000000
     11          1           0       -7.557926    0.364337    0.000000
     12          1           0       -7.172897   -2.069624    0.000000
     13          1           0       -4.864752   -3.000782   -0.000000
     14          1           0       -0.966761    0.097304    0.000000
     15          1           0       -2.719957    1.913192    0.000000
 ---------------------------------------------------------------------

 SCF Done:  E(RB3LYP) =  -380.006097435     A.U. after    1 cycles

 Alpha  occ. eigenvalues --  -14.37594 -14.31179 -10.24780 -10.22009 -10.20527
 Alpha  occ. eigenvalues --  -10.18698 -10.18202 -10.18132 -10.17844  -1.02972
 Alpha  occ. eigenvalues --   -0.89085  -0.85628  -0.75554  -0.74877  -0.64318
 Alpha  occ. eigenvalues --   -0.62881  -0.60984  -0.55654  -0.51104  -0.49223
 Alpha  occ. eigenvalues --   -0.45540  -0.45369  -0.44638  -0.42704  -0.37759
 Alpha  occ. eigenvalues --   -0.36832  -0.35630  -0.32192  -0.29478  -0.24543
 Alpha  occ. eigenvalues --   -0.24202
 Alpha virt. eigenvalues --   -0.03625  -0.00055   0.00495   0.01608   0.02494
 Alpha virt. eigenvalues --    0.02555   0.03875   0.04142   0.04914   0.05057
 Alpha virt. eigenvalues --    0.07123   0.07566   0.08003   0.08369   0.09687

 Mulliken charges:
               1
     1  C   -0.279772
     2  C   -0.234392
     3  C   -0.750922
     4  C    0.660882
     5  C    0.590948
     6  C   -0.759053
     7  N   -0.246321
     8  C    0.226925
     9  N   -0.291271
    10  H    0.143731
    11  H    0.147273
    12  H    0.145041
    13  H    0.141521
    14  H    0.157621
    15  H    0.347788
 Sum of Mulliken charges =  -0.00000

 Dipole moment (field-independent basis, Debye):
    X=              0.1798    Y=              4.9083    Z=             -0.0000  Tot=              4.9115
 Quadrupole moment (field-independent basis, Debye-Ang):
   XX=            -47.1450   YY=            -48.6781   ZZ=            -56.8438
   XY=            -11.6078   XZ=              0.0000   YZ=             -0.0000

  Exact polarizability:     172.537       5.794     135.728      -0.000       0.000      69.355
 Approx polarizability:     202.107       7.402     171.563      -0.000       0.000      79.631

 Summary of Natural Population Analysis:

                                       Natural Population
                Natural  -----------------------------------------------
    Atom  No    Charge         Core      Valence    Rydberg      Total
 -----------------------------------------------------------------------
      C    1   -0.21443      1.99919     4.19678    0.01845     6.21443
      C    2   -0.22944      1.99919     4.21168    0.01857     6.22944
      C    3   -0.23513      1.99907     4.21896    0.01709     6.23513
      C    4    0.11886      1.99894     3.86215    0.02006     5.88114
      C    5    0.09468      1.99893     3.87987    0.02653     5.90532
      C    6   -0.21142      1.99906     4.19398    0.01838     6.21142
      N    7   -0.54596      1.99931     5.53299    0.01367     7.54596
      C    8    0.25025      1.99939     3.71769    0.03268     5.74975
      N    9   -0.54705      1.99942     5.52314    0.02448     7.54705
      H   10    0.22441      0.00000     0.77389    0.00170     0.77559
      H   11    0.21477      0.00000     0.78388    0.00135     0.78523
      H   12    0.21419      0.00000     0.78444    0.00137     0.78581
      H   13    0.22067      0.00000     0.77736    0.00198     0.77933
      H   14    0.20995      0.00000     0.78882    0.00122     0.79005
      H   15    0.43564      0.00000     0.56232    0.00203     0.56436
 =======================================================================
   * Total *   -0.00000     17.99250    43.80795    0.19955    62.00000

                      1                      2                      3
                      A                      A                      A
 Frequencies --    219.5309               253.4162               420.4550
 Red. masses --      4.1361                 4.8883                 4.4179
 Frc consts  --      0.1174                 0.1850                 0.4602
 IR Inten    --     13.1885                 7.7037                15.9380
 Raman Activ --      0.1954                 0.2308                 1.0294

                      4                      5                      6
                      A                      A                      A
 Frequencies --    428.7862               496.8346               553.3529
 Red. masses --      2.8290                 1.4003                 7.1485
 Frc consts  --      0.3065                 0.2037                 1.2896
 IR Inten    --     21.2204               130.1742                 0.5784
 Raman Activ --      1.0810                 0.0699                 8.9263

                      7                      8                      9
                      A                      A                      A
 Frequencies --    588.8687               633.1427               650.7638
 Red. masses --      3.2241                 6.6436                 2.4124
 Frc consts  --      0.6587                 1.5691                 0.6019
 IR Inten    --      7.6599                 0.5240                 8.2503
 Raman Activ --      0.6701                18.9791                 0.3951

                     10                     11                     12
                      A                      A                      A
 Frequencies --    751.4166               770.8105               793.4740
 Red. masses --      1.4019                 3.6788                 5.0612
 Frc consts  --      0.4664                 1.2878                 1.8774
 IR Inten    --    117.3241                20.8210                 9.7085
 Raman Activ --      6.0956                 2.7294                74.0326

                     13                     14                     15
                      A                      A                      A
 Frequencies --    858.2203               880.8050               892.0399
 Red. masses --      1.4373                 1.4234                 5.4357
 Frc consts  --      0.6237                 0.6506                 2.5484
 IR Inten    --      0.1458                12.8009                 4.5458
 Raman Activ --      6.3358                 3.1265                 1.5430

                     16                     17                     18
                      A                      A                      A
 Frequencies --    950.3658               952.9242               988.2730
 Red. masses --      1.3662                 6.5233                 1.2704
 Frc consts  --      0.7270                 3.4901                 0.7310
 IR Inten    --      4.0292                 1.7071                 0.0014
 Raman Activ --      3.2736                 8.8303                 0.3320

                     19                     20                     21
                      A                      A                      A
 Frequencies --   1025.9398              1114.3354              1128.2955
 Red. masses --      2.1072                 1.6427                 1.6346
 Frc consts  --      1.3067                 1.2018                 1.2260
 IR Inten    --     17.1460                39.5066                 4.0755
 Raman Activ --     69.9346                32.6638                 5.1055

                     22                     23                     24
                      A                      A                      A
 Frequencies --   1167.8484              1203.8434              1272.2408
 Red. masses --      1.1519                 2.1509                 2.2839
 Frc consts  --      0.9257                 1.8366                 2.1780
 IR Inten    --      3.6818                 3.1045                48.6988
 Raman Activ --     14.8051                 4.4762               197.1765

                     25                     26                     27
                      A                      A                      A
 Frequencies --   1284.0242              1330.0106              1384.0190
 Red. masses --      2.3513                 2.3059                 3.7190
 Frc consts  --      2.2841                 2.4032                 4.1972
 IR Inten    --     61.5973                16.7987                38.4522
 Raman Activ --     50.5868                48.2553               101.9173

                     28                     29                     30
                      A                      A                      A
 Frequencies --   1423.1356              1475.7162              1511.4912
 Red. masses --      2.3064                 2.5048                 3.8769
 Frc consts  --      2.7521                 3.2139                 5.2186
 IR Inten    --     75.7462                51.2187                41.4708
 Raman Activ --     82.3634                36.5424                65.0156

                     31                     32                     33
                      A                      A                      A
 Frequencies --   1525.9896              1620.9211              1658.6102
 Red. masses --      2.7775                 6.2758                 6.5970
 Frc consts  --      3.8107                 9.7150                10.6927
 IR Inten    --     18.8749                 6.7817                14.5161
 Raman Activ --     90.4196                67.1276                18.4745

                     34                     35                     36
                      A                      A                      A
 Frequencies --   3170.3911              3180.3265              3189.3871
 Red. masses --      1.0862                 1.0892                 1.0943
 Frc consts  --      6.4325                 6.4907                 6.5587
 IR Inten    --      0.7864                10.4505                31.6323
 Raman Activ --    103.6211               255.1272                55.6640

                     37                     38                     39
                      A                      A                      A
 Frequencies --   3196.0422              3242.7881              3647.5998
 Red. masses --      1.0973                 1.0984                 1.0820
 Frc consts  --      6.6037                 6.8054                 8.4822
 IR Inten    --     16.2273                 0.5572               157.6858
 Raman Activ --    673.8544               218.3727               275.1071

 - Thermochemistry -
 -------------------
 Temperature   298.150 Kelvin.  Pressure   1.00000 Atm.
 Thermochemistry will use frequencies scaled by 0.9670.

 Molecular mass:   118.05310 amu.
 Principal axes and moments of inertia in atomic units:
                           1         2         3
     Eigenvalues --   457.707441077.442501535.14994
           X            0.98881  -0.14917   0.00000
           Y            0.14917   0.98881  -0.00000
           Z           -0.00000   0.00000   1.00000
 This molecule is an asymmetric top.
 Rotational symmetry number  1.
 Warning -- assumption of classical behavior for rotation
           may cause significant error
 Rotational temperatures (Kelvin)      0.18923     0.08039     0.05642
 Rotational constants (GHZ):           3.94300     1.67502     1.17561
 Zero-point vibrational energy     299819.1 (Joules/Mol)
                                   71.65848 (Kcal/Mol)
 Warning -- explicit consideration of   8 degrees of freedom as
           vibrations may cause significant error
 Vibrational temperatures:    305.43   352.58   584.98   596.57   691.24
          (Kelvin)            769.88   819.29   880.89   905.41  1045.44
                             1072.43  1103.96  1194.04  1225.46  1241.09
                             1322.24  1325.80  1374.98  1427.39  1550.37
                             1569.79  1624.82  1674.90  1770.07  1786.46
                             1850.44  1925.58  1980.00  2053.16  2102.93
                             2123.11  2255.18  2307.62  4410.96  4424.78
                             4437.39  4446.64  4511.68  5074.90

 Zero-point correction=                           0.114195 (Hartree/Particle)
 Thermal correction to Energy=                    0.120418
 Thermal correction to Enthalpy=                  0.121363
 Thermal correction to Gibbs Free Energy=         0.083932
 Sum of electronic and zero-point Energies=           -379.891902
 Sum of electronic and thermal Energies=              -379.885679
 Sum of electronic and thermal Enthalpies=            -379.884735
 Sum of electronic and thermal Free Energies=         -379.922165

                     E (Thermal)             CV                S
                      KCal/Mol        Cal/Mol-Kelvin    Cal/Mol-Kelvin
 Total                   75.564             25.917             78.779
 Electronic               0.000              0.000              0.000
 Translational            0.889              2.981             40.213
 Rotational               0.889              2.981             28.117
 Vibrational             73.786             19.956             10.449
 Vibration     1          0.643              1.822              2.024
 Vibration     2          0.660              1.771              1.766
 Vibration     3          0.771              1.456              0.939
 Vibration     4          0.778              1.438              0.910
 Vibration     5          0.837              1.293              0.709
 Vibration     6          0.890              1.172              0.576
 Vibration     7          0.925              1.097              0.505
 Vibration     8          0.971              1.006              0.429

 Optimization completed.
    -- Stationary point found.
 Normal termination of Gaussian 16 at Fri Jun  2 11:46:13 2023.
