 Gaussian 16, Revision C.01,
 Gaussian 16:  ES64L-G16RevC.01  3-Jul-2019

 ----------------------------------------------------------------------
 #p freq=raman scale=0.967 pop=(nbo,full,hirshfeld) guess=read geom=all
 check b3lyp/6-311+G(d,p) int=grid=ultrafine EmpiricalDispersion=GD3BJ
 SCRF=(Solvent=ethanol) scf=(xqc,intrep,maxconventionalcycle=350) nosym
 m
 ----------------------------------------------------------------------

 Structure from the checkpoint file:  "/scratch1/svicchi/G09-659802.pbs02/02-freq/2CNPyr-H_dissociation-site_index-3-freq.chk"
 --------------------------------------
 2CNPyr-H_dissociation-site_index-3.gjf
 --------------------------------------
 Charge =  0 Multiplicity = 1

                          Input orientation:
 ---------------------------------------------------------------------
 Center     Atomic      Atomic             Coordinates (Angstroms)
 Number     Number       Type             X           Y           Z
 ---------------------------------------------------------------------
      1          6           0       -1.428684   -0.777387   -0.027834
      2          6           0       -0.400434    0.158010    0.018950
      3          6           0       -2.331918    1.287572    0.085277
      4          7           0       -0.977103    1.412447    0.087722
      5          6           0       -2.644964   -0.060565    0.014343
      6          1           0       -3.639333   -0.476630   -0.004720
      7          1           0       -2.967359    2.156436    0.133627
      8          1           0       -1.296006   -1.845723   -0.085327
      9          6           0        0.992965   -0.035244    0.004635
     10          7           0        2.139308   -0.205076   -0.007926
     11          1           0       -0.470100    2.283660    0.131491
 ---------------------------------------------------------------------

 SCF Done:  E(RB3LYP) =  -302.528102401     A.U. after    1 cycles

 Alpha  occ. eigenvalues --  -14.38678 -14.32772 -10.24166 -10.23100 -10.22088
 Alpha  occ. eigenvalues --  -10.19156 -10.18026  -1.01131  -0.92571  -0.80534
 Alpha  occ. eigenvalues --   -0.77558  -0.63902  -0.61266  -0.59823  -0.48438
 Alpha  occ. eigenvalues --   -0.46287  -0.44907  -0.42818  -0.41281  -0.38949
 Alpha  occ. eigenvalues --   -0.37171  -0.35667  -0.27842  -0.24483
 Alpha virt. eigenvalues --   -0.04177  -0.00609   0.00308   0.02219   0.02896
 Alpha virt. eigenvalues --    0.03087   0.04630   0.04776   0.05263   0.05975
 Alpha virt. eigenvalues --    0.08094   0.08169   0.09000   0.09472   0.10554

 Mulliken charges:
               1
     1  C    0.306600
     2  C    0.903750
     3  C   -0.025506
     4  N   -0.134460
     5  C   -0.213125
     6  H    0.150602
     7  H    0.157462
     8  H    0.150464
     9  C   -1.302259
    10  N   -0.332758
    11  H    0.339232
 Sum of Mulliken charges =  -0.00000

 Dipole moment (field-independent basis, Debye):
    X=             -5.1281    Y=              2.9425    Z=              0.1699  Tot=              5.9147
 Quadrupole moment (field-independent basis, Debye-Ang):
   XX=            -45.5597   YY=            -29.8976   ZZ=            -43.6462
   XY=             -0.9633   XZ=             -0.0941   YZ=              0.7610

  Exact polarizability:     143.217      -9.802      83.704      -0.803       1.743      51.588
 Approx polarizability:     176.057     -11.032     102.694      -0.952       2.433      57.902

 Summary of Natural Population Analysis:

                                       Natural Population
                Natural  -----------------------------------------------
    Atom  No    Charge         Core      Valence    Rydberg      Total
 -----------------------------------------------------------------------
      C    1   -0.21323      1.99911     4.19807    0.01605     6.21323
      C    2   -0.03754      1.99891     4.01576    0.02286     6.03754
      C    3    0.00163      1.99925     3.97624    0.02289     5.99837
      N    4   -0.49291      1.99933     5.47924    0.01433     7.49291
      C    5   -0.30122      1.99919     4.28442    0.01761     6.30122
      H    6    0.23216      0.00000     0.76657    0.00127     0.76784
      H    7    0.22781      0.00000     0.77094    0.00125     0.77219
      H    8    0.23501      0.00000     0.76371    0.00128     0.76499
      C    9    0.30546      1.99926     3.66211    0.03317     5.69454
      N   10   -0.39481      1.99958     5.37722    0.01801     7.39481
      H   11    0.43763      0.00000     0.56054    0.00183     0.56237
 =======================================================================
   * Total *    0.00000     13.99463    33.85483    0.15055    48.00000

                      1                      2                      3
                      A                      A                      A
 Frequencies --    160.0544               179.2424               502.4083
 Red. masses --      6.3997                 6.2026                 5.5594
 Frc consts  --      0.0966                 0.1174                 0.8268
 IR Inten    --      2.2106                11.5092                53.1108
 Raman Activ --      0.4221                 9.5435                 5.6826

                      4                      5                      6
                      A                      A                      A
 Frequencies --    529.0508               574.1847               579.7308
 Red. masses --      1.6213                 7.7556                 8.5494
 Frc consts  --      0.2674                 1.5065                 1.6929
 IR Inten    --     68.3482                 1.9683                 1.6086
 Raman Activ --      2.4624                 5.5905                 8.3067

                      7                      8                      9
                      A                      A                      A
 Frequencies --    621.9107               658.1723               747.1864
 Red. masses --      2.5401                 3.1505                 1.1947
 Frc consts  --      0.5788                 0.8041                 0.3930
 IR Inten    --      0.0806                23.9094               146.7629
 Raman Activ --      0.4139                 3.2879                10.6384

                     10                     11                     12
                      A                      A                      A
 Frequencies --    841.8862               904.2945               905.8450
 Red. masses --      1.3383                 1.3405                 5.6909
 Frc consts  --      0.5589                 0.6459                 2.7513
 IR Inten    --     14.4326                 0.6826                 4.9718
 Raman Activ --      4.7692                 0.8139                12.3761

                     13                     14                     15
                      A                      A                      A
 Frequencies --    973.7987              1054.9240              1115.5878
 Red. masses --      2.8969                 1.2956                 1.9231
 Frc consts  --      1.6185                 0.8495                 1.4102
 IR Inten    --     26.3588                51.1941                30.8413
 Raman Activ --     22.1886                17.7283                50.9020

                     16                     17                     18
                      A                      A                      A
 Frequencies --   1139.4117              1280.8690              1292.0289
 Red. masses --      1.3985                 1.6076                 4.6600
 Frc consts  --      1.0698                 1.5540                 4.5833
 IR Inten    --     63.9476                 7.2780                19.5634
 Raman Activ --     18.5520                 9.3668                40.2593

                     19                     20                     21
                      A                      A                      A
 Frequencies --   1428.2200              1445.6932              1472.6142
 Red. masses --      3.9735                 3.6846                 3.1193
 Frc consts  --      4.7755                 4.5373                 3.9855
 IR Inten    --     23.5293                77.1618                 4.3912
 Raman Activ --    266.1685               339.7204                26.0181

                     22                     23                     24
                      A                      A                      A
 Frequencies --   1580.9011              2305.0852              3244.3282
 Red. masses --      3.2319                12.6497                 1.0913
 Frc consts  --      4.7589                39.6009                 6.7680
 IR Inten    --      5.4198               417.8015                 2.2363
 Raman Activ --     52.8475              1670.9439               172.5775

                     25                     26                     27
                      A                      A                      A
 Frequencies --   3257.0158              3270.3280              3646.5526
 Red. masses --      1.0984                 1.1042                 1.0824
 Frc consts  --      6.8652                 6.9581                 8.4800
 IR Inten    --      0.4369                 0.2216               179.1463
 Raman Activ --    103.9366               315.8457               149.9547

 - Thermochemistry -
 -------------------
 Temperature   298.150 Kelvin.  Pressure   1.00000 Atm.
 Thermochemistry will use frequencies scaled by 0.9670.

 Molecular mass:    92.03745 amu.
 Principal axes and moments of inertia in atomic units:
                           1         2         3
     Eigenvalues --   202.33664 904.409751106.74637
           X            0.98496   0.17277   0.00303
           Y           -0.17237   0.98359  -0.05326
           Z           -0.01218   0.05194   0.99858
 This molecule is an asymmetric top.
 Rotational symmetry number  1.
 Rotational temperatures (Kelvin)      0.42807     0.09577     0.07826
 Rotational constants (GHZ):           8.91950     1.99549     1.63067
 Zero-point vibrational energy     206552.3 (Joules/Mol)
                                   49.36719 (Kcal/Mol)
 Warning -- explicit consideration of   7 degrees of freedom as
           vibrations may cause significant error
 Vibrational temperatures:    222.68   249.38   699.00   736.07   798.86
          (Kelvin)            806.58   865.26   915.71  1039.56  1171.31
                             1258.14  1260.30  1354.84  1467.71  1552.11
                             1585.26  1782.07  1797.60  1987.08  2011.39
                             2048.84  2199.50  3207.06  4513.83  4531.48
                             4550.00  5073.44

 Zero-point correction=                           0.078672 (Hartree/Particle)
 Thermal correction to Energy=                    0.084347
 Thermal correction to Enthalpy=                  0.085291
 Thermal correction to Gibbs Free Energy=         0.049295
 Sum of electronic and zero-point Energies=           -302.449431
 Sum of electronic and thermal Energies=              -302.443756
 Sum of electronic and thermal Enthalpies=            -302.442811
 Sum of electronic and thermal Free Energies=         -302.478808

                     E (Thermal)             CV                S
                      KCal/Mol        Cal/Mol-Kelvin    Cal/Mol-Kelvin
 Total                   52.928             21.077             75.761
 Electronic               0.000              0.000              0.000
 Translational            0.889              2.981             39.471
 Rotational               0.889              2.981             26.807
 Vibrational             51.151             15.116              9.483
 Vibration     1          0.620              1.897              2.613
 Vibration     2          0.627              1.875              2.399
 Vibration     3          0.842              1.281              0.695
 Vibration     4          0.867              1.224              0.630
 Vibration     5          0.911              1.128              0.533
 Vibration     6          0.916              1.117              0.523
 Vibration     7          0.960              1.029              0.447

 Optimization completed.
    -- Stationary point found.
 Normal termination of Gaussian 16 at Fri Jun  2 11:26:15 2023.
