 Gaussian 16, Revision C.02,
 Gaussian 16:  ES64L-G16RevC.02  7-Dec-2021

 ----------------------------------------------------------------------
 #p freq=raman scale=0.967 guess=read geom=allcheck b3lyp/6-311+G(d,p)
 int=grid=ultrafine EmpiricalDispersion=GD3BJ SCRF=(Solvent=ethanol) sc
 f=(xqc,intrep,maxconventionalcycle=350) nosymm
 ----------------------------------------------------------------------

 Structure from the checkpoint file:  "/scratch1/svicchi/G09-1868862.pbs02/02-freq/IMIDCN-CO2_binding-site_index-1-freq.chk"
 -------------------------------
 IMIDCN-CO2_binding-site_index-1
 -------------------------------
 Charge = -1 Multiplicity = 1

                          Input orientation:
 ---------------------------------------------------------------------
 Center     Atomic      Atomic             Coordinates (Angstroms)
 Number     Number       Type             X           Y           Z
 ---------------------------------------------------------------------
      1          6           0       -2.027291    3.489413    0.165616
      2          7           0       -1.130598    2.450870    0.139766
      3          6           0       -1.819257    1.362235   -0.319387
      4          6           0       -3.109536    1.784528   -0.554486
      5          1           0       -1.332335    0.409674   -0.431561
      6          7           0       -3.234596    3.113351   -0.250349
      7          1           0       -3.943805    1.207875   -0.922202
      8          6           0       -1.741626    4.816016    0.576954
      9          7           0       -1.622698    5.923477    0.888440
     10          6           0        0.339257    2.467606    0.532996
     11          8           0        0.890523    1.373585    0.390949
     12          8           0        0.723507    3.572078    0.925332
 ---------------------------------------------------------------------

 SCF Done:  E(RB3LYP) =  -506.767928831     A.U. after    2 cycles

 Alpha  occ. eigenvalues --  -19.08269 -19.08266 -14.37920 -14.32248 -14.32154
 Alpha  occ. eigenvalues --  -10.30391 -10.26159 -10.22674 -10.21062 -10.19918
 Alpha  occ. eigenvalues --   -1.07095  -1.02333  -0.97731  -0.92081  -0.88539
 Alpha  occ. eigenvalues --   -0.77678  -0.65725  -0.62143  -0.60832  -0.49854
 Alpha  occ. eigenvalues --   -0.47678  -0.47338  -0.44565  -0.44336  -0.42499
 Alpha  occ. eigenvalues --   -0.41351  -0.38527  -0.36602  -0.35395  -0.31219
 Alpha  occ. eigenvalues --   -0.29888  -0.28023  -0.27590  -0.25993  -0.24647
 Alpha virt. eigenvalues --   -0.05026   0.00819   0.01072   0.02231   0.02791
 Alpha virt. eigenvalues --    0.03420   0.04672   0.05086   0.05571   0.06721
 Alpha virt. eigenvalues --    0.06778   0.08724   0.08939   0.08956   0.09920

 Mulliken charges:
               1
     1  C    1.078991
     2  N   -0.130137
     3  C    0.027520
     4  C   -0.082008
     5  H    0.167996
     6  N   -0.217181
     7  H    0.143923
     8  C   -1.039786
     9  N   -0.336077
    10  C    0.389223
    11  O   -0.509124
    12  O   -0.493340
 Sum of Mulliken charges =  -1.00000

 Dipole moment (field-independent basis, Debye):
    X=              0.3102    Y=            -18.9619    Z=             -3.8446  Tot=             19.3502
 Quadrupole moment (field-independent basis, Debye-Ang):
   XX=            -77.2836   YY=           -148.6380   ZZ=            -61.5857
   XY=             16.4868   XZ=             -0.9358   YZ=            -15.1698

  Exact polarizability:     115.832       1.861     160.923      14.642      25.662      72.720
 Approx polarizability:     128.804       3.745     200.775      16.312      34.190      83.836

                      1                      2                      3
                      A                      A                      A
 Frequencies --     46.1418               143.4215               154.8037
 Red. masses --     15.0785                 7.6352                13.8203
 Frc consts  --      0.0189                 0.0925                 0.1951
 IR Inten    --      0.3629                10.5318                 2.9447
 Raman Activ --      0.5497                 2.4114                 4.1919

                      4                      5                      6
                      A                      A                      A
 Frequencies --    189.9490               232.7789               362.2575
 Red. masses --      7.0148                 8.7495                10.2608
 Frc consts  --      0.1491                 0.2793                 0.7933
 IR Inten    --      4.9345                 7.5919                 7.2644
 Raman Activ --      0.5916                12.1006                 7.6236

                      7                      8                      9
                      A                      A                      A
 Frequencies --    463.5180               506.3775               615.1133
 Red. masses --     13.1248                10.5684                 9.7631
 Frc consts  --      1.6614                 1.5967                 2.1764
 IR Inten    --      9.1894                14.2866                27.0810
 Raman Activ --      2.3220                 9.5215                16.0100

                     10                     11                     12
                      A                      A                      A
 Frequencies --    631.3092               642.9036               710.4543
 Red. masses --      3.3992                 8.7302                 9.4257
 Frc consts  --      0.7982                 2.1260                 2.8031
 IR Inten    --      0.3272                28.3969                 5.7400
 Raman Activ --      0.9592                 3.1750                 4.6399

                     13                     14                     15
                      A                      A                      A
 Frequencies --    745.5797               783.9985               802.0702
 Red. masses --     13.4639                 2.7442                 1.8814
 Frc consts  --      4.4097                 0.9938                 0.7131
 IR Inten    --    456.1058               103.2386                11.0139
 Raman Activ --     13.1081                 4.1884                 6.7343

                     16                     17                     18
                      A                      A                      A
 Frequencies --    888.2707               947.2113              1048.6239
 Red. masses --      1.4050                 6.2351                 1.6290
 Frc consts  --      0.6532                 3.2960                 1.0554
 IR Inten    --      1.3856                 4.5331               128.0146
 Raman Activ --      3.2252                18.6307                 2.5760

                     19                     20                     21
                      A                      A                      A
 Frequencies --   1143.4672              1183.8357              1213.6812
 Red. masses --      2.7886                 2.4201                 7.1553
 Frc consts  --      2.1483                 1.9984                 6.2100
 IR Inten    --     12.3829                71.7690               564.7388
 Raman Activ --     14.1959                94.7077               107.7604

                     22                     23                     24
                      A                      A                      A
 Frequencies --   1289.9783              1377.3963              1421.0150
 Red. masses --      5.8554                 9.2663                 6.1109
 Frc consts  --      5.7407                10.3579                 7.2704
 IR Inten    --    304.9466                 1.9403                24.2165
 Raman Activ --     60.0156                33.2164               480.5780

                     25                     26                     27
                      A                      A                      A
 Frequencies --   1451.3073              1510.8727              1762.3997
 Red. masses --      4.2282                 4.8012                12.8752
 Frc consts  --      5.2472                 6.4574                23.5620
 IR Inten    --     65.4471                 3.6948              1124.6141
 Raman Activ --    160.3969                16.0264                12.2208

                     28                     29                     30
                      A                      A                      A
 Frequencies --   2324.2909              3241.1045              3288.7696
 Red. masses --     12.6617                 1.0955                 1.1013
 Frc consts  --     40.3017                 6.7802                 7.0179
 IR Inten    --    242.0955                 9.5618                 7.0623
 Raman Activ --   1598.9782               229.4202               212.5416

 - Thermochemistry -
 -------------------
 Temperature   298.150 Kelvin.  Pressure   1.00000 Atm.
 Thermochemistry will use frequencies scaled by 0.9670.

 Molecular mass:   136.01470 amu.
 Principal axes and moments of inertia in atomic units:
                           1         2         3
     Eigenvalues --   981.152761147.053372128.18608
           X            0.77638   0.57908  -0.24880
           Y           -0.62861   0.74004  -0.23916
           Z            0.04563   0.34207   0.93856
 This molecule is an asymmetric top.
 Rotational symmetry number  1.
 Warning -- assumption of classical behavior for rotation
           may cause significant error
 Rotational temperatures (Kelvin)      0.08828     0.07551     0.04070
 Rotational constants (GHZ):           1.83941     1.57337     0.84802
 Zero-point vibrational energy     180013.1 (Joules/Mol)
                                   43.02417 (Kcal/Mol)
 Warning -- explicit consideration of  10 degrees of freedom as
           vibrations may cause significant error
 Vibrational temperatures:     64.20   199.54   215.38   264.28   323.86
          (Kelvin)            504.01   644.89   704.52   855.81   878.34
                              894.47   988.45  1037.32  1090.78  1115.92
                             1235.85  1317.85  1458.95  1590.90  1647.07
                             1688.59  1794.74  1916.37  1977.05  2019.20
                             2102.07  2452.02  3233.78  4509.34  4575.66

 Zero-point correction=                           0.068563 (Hartree/Particle)
 Thermal correction to Energy=                    0.076642
 Thermal correction to Enthalpy=                  0.077586
 Thermal correction to Gibbs Free Energy=         0.034665
 Sum of electronic and zero-point Energies=           -506.699365
 Sum of electronic and thermal Energies=              -506.691287
 Sum of electronic and thermal Enthalpies=            -506.690343
 Sum of electronic and thermal Free Energies=         -506.733264

                     E (Thermal)             CV                S
                      KCal/Mol        Cal/Mol-Kelvin    Cal/Mol-Kelvin
 Total                   48.093             28.529             90.334
 Electronic               0.000              0.000              0.000
 Translational            0.889              2.981             40.635
 Rotational               0.889              2.981             29.261
 Vibrational             46.316             22.568             20.438
 Vibration     1          0.595              1.980              5.043
 Vibration     2          0.614              1.915              2.822
 Vibration     3          0.618              1.903              2.676
 Vibration     4          0.631              1.862              2.291
 Vibration     5          0.650              1.803              1.918
 Vibration     6          0.727              1.575              1.165
 Vibration     7          0.807              1.365              0.801
 Vibration     8          0.846              1.273              0.684
 Vibration     9          0.953              1.043              0.459
 Vibration    10          0.970              1.010              0.432

 Optimization completed.
    -- Stationary point found.
 Normal termination of Gaussian 16 at Thu Jan 11 13:05:10 2024.
