 Gaussian 16, Revision C.02,
 Gaussian 16:  ES64L-G16RevC.02  7-Dec-2021

 ----------------------------------------------------------------------
 #p freq=raman scale=0.967 guess=read geom=allcheck b3lyp/6-311+G(d,p)
 int=grid=ultrafine EmpiricalDispersion=GD3BJ SCRF=(Solvent=ethanol) sc
 f=(xqc,intrep,maxconventionalcycle=350) nosymm
 ----------------------------------------------------------------------

 Structure from the checkpoint file:  "/scratch1/svicchi/G09-1734031.pbs02/02-freq/PyrF-isolated-freq.chk"
 -------------
 PyrF-isolated
 -------------
 Charge = -1 Multiplicity = 1

                          Input orientation:
 ---------------------------------------------------------------------
 Center     Atomic      Atomic             Coordinates (Angstroms)
 Number     Number       Type             X           Y           Z
 ---------------------------------------------------------------------
      1          6           0       -0.417521    0.746036    0.186401
      2          6           0       -1.271912   -0.219148   -0.349903
      3          6           0       -0.440415   -1.316097   -0.736319
      4          1           0       -2.347338   -0.153926   -0.454196
      5          6           0        0.833780   -0.887313   -0.387437
      6          7           0        0.897566    0.324038    0.161091
      7          1           0       -0.672267    1.718152    0.589134
      8          9           0        1.998845   -1.608308   -0.565463
      9          1           0       -0.724728   -2.253857   -1.190547
 ---------------------------------------------------------------------

 SCF Done:  E(RB3LYP) =  -309.025169775     A.U. after    1 cycles

 Alpha  occ. eigenvalues --  -24.65920 -14.25789 -10.21713 -10.14416 -10.12667
 Alpha  occ. eigenvalues --  -10.12598  -1.18967  -0.90859  -0.71842  -0.66753
 Alpha  occ. eigenvalues --   -0.54336  -0.53541  -0.48157  -0.44012  -0.42091
 Alpha  occ. eigenvalues --   -0.40382  -0.35941  -0.34331  -0.33599  -0.25320
 Alpha  occ. eigenvalues --   -0.20431  -0.17332
 Alpha virt. eigenvalues --    0.01823   0.03081   0.04128   0.05609   0.05934
 Alpha virt. eigenvalues --    0.07115   0.07292   0.08070   0.08121   0.10014
 Alpha virt. eigenvalues --    0.11129   0.11562   0.11774   0.14831   0.15860

 Mulliken charges:
               1
     1  C   -0.213182
     2  C   -0.307411
     3  C   -0.078167
     4  H    0.101618
     5  C    0.000767
     6  N   -0.421989
     7  H    0.094983
     8  F   -0.281375
     9  H    0.104755
 Sum of Mulliken charges =  -1.00000

 Dipole moment (field-independent basis, Debye):
    X=             -3.6703    Y=              1.1213    Z=              0.5012  Tot=              3.8704
 Quadrupole moment (field-independent basis, Debye-Ang):
   XX=            -46.6676   YY=            -41.4530   ZZ=            -41.0844
   XY=              1.5191   XZ=              0.3303   YZ=             -0.1052

  Exact polarizability:      89.160       1.624      87.049       4.105      11.481      67.405
 Approx polarizability:     100.962       1.748      97.221       5.415      15.260      70.968

                      1                      2                      3
                      A                      A                      A
 Frequencies --    298.5843               428.7551               633.0998
 Red. masses --      7.6187                 6.6791                 3.3595
 Frc consts  --      0.4002                 0.7234                 0.7933
 IR Inten    --      3.4589                 2.4429                 3.4954
 Raman Activ --      6.9203                 2.8013                 6.7930

                      4                      5                      6
                      A                      A                      A
 Frequencies --    642.1577               659.9732               677.7382
 Red. masses --     11.3138                 2.7104                 1.2624
 Frc consts  --      2.7488                 0.6956                 0.3416
 IR Inten    --     44.9583                68.7723               148.3025
 Raman Activ --     13.7594                25.0106                26.4110

                      7                      8                      9
                      A                      A                      A
 Frequencies --    704.3192               802.9645               898.0078
 Red. masses --      1.7861                 1.2271                 5.6305
 Frc consts  --      0.5220                 0.4662                 2.6752
 IR Inten    --     27.3533                 3.8861                 0.4850
 Raman Activ --     30.9852                10.3447                 4.2268

                     10                     11                     12
                      A                      A                      A
 Frequencies --    967.8172              1012.9998              1081.6003
 Red. masses --      3.3928                 1.3618                 1.8217
 Frc consts  --      1.8724                 0.8233                 1.2556
 IR Inten    --     80.9029                46.9449                 6.2098
 Raman Activ --      2.1913                 1.5383                33.4716

                     13                     14                     15
                      A                      A                      A
 Frequencies --   1178.4955              1236.4655              1321.5723
 Red. masses --      2.3847                 2.6029                 3.8548
 Frc consts  --      1.9514                 2.3446                 3.9668
 IR Inten    --     37.4852                35.2206                90.6659
 Raman Activ --     15.1760                97.6696                55.5150

                     16                     17                     18
                      A                      A                      A
 Frequencies --   1409.1327              1460.3461              1490.4245
 Red. masses --      5.3891                 3.0941                 5.3755
 Frc consts  --      6.3048                 3.8877                 7.0355
 IR Inten    --    195.9037                74.3899               124.4797
 Raman Activ --     90.0781                28.6825                53.6982

                     19                     20                     21
                      A                      A                      A
 Frequencies --   3174.2450              3194.7363              3220.3613
 Red. masses --      1.0870                 1.0980                 1.0994
 Frc consts  --      6.4527                 6.6026                 6.7177
 IR Inten    --     17.7708                57.9453                14.7079
 Raman Activ --    196.7716               173.3893               315.0276

 - Thermochemistry -
 -------------------
 Temperature   298.150 Kelvin.  Pressure   1.00000 Atm.
 Thermochemistry will use frequencies scaled by 0.9670.

 Molecular mass:    84.02495 amu.
 Principal axes and moments of inertia in atomic units:
                           1         2         3
     Eigenvalues --   194.41057 504.09361 698.50417
           X            0.83558   0.53779  -0.11222
           Y           -0.53268   0.74313  -0.40498
           Z           -0.13440   0.39817   0.90741
 This molecule is an asymmetric top.
 Rotational symmetry number  1.
 Rotational temperatures (Kelvin)      0.44552     0.17182     0.12400
 Rotational constants (GHZ):           9.28314     3.58017     2.58372
 Zero-point vibrational energy     153238.6 (Joules/Mol)
                                   36.62492 (Kcal/Mol)
 Warning -- explicit consideration of   3 degrees of freedom as
           vibrations may cause significant error
 Vibrational temperatures:    415.42   596.53   880.83   893.43   918.22
          (Kelvin)            942.94   979.92  1117.16  1249.40  1346.52
                             1409.38  1504.83  1639.64  1720.29  1838.70
                             1960.52  2031.78  2073.62  4416.32  4444.83
                             4480.48

 Zero-point correction=                           0.058366 (Hartree/Particle)
 Thermal correction to Energy=                    0.062959
 Thermal correction to Enthalpy=                  0.063904
 Thermal correction to Gibbs Free Energy=         0.030592
 Sum of electronic and zero-point Energies=           -308.966804
 Sum of electronic and thermal Energies=              -308.962210
 Sum of electronic and thermal Enthalpies=            -308.961266
 Sum of electronic and thermal Free Energies=         -308.994578

                     E (Thermal)             CV                S
                      KCal/Mol        Cal/Mol-Kelvin    Cal/Mol-Kelvin
 Total                   39.508             17.170             70.110
 Electronic               0.000              0.000              0.000
 Translational            0.889              2.981             39.199
 Rotational               0.889              2.981             25.729
 Vibrational             37.730             11.208              5.181
 Vibration     1          0.685              1.695              1.481
 Vibration     2          0.778              1.439              0.910
 Vibration     3          0.971              1.006              0.429

 Optimization completed.
    -- Stationary point found.
 Normal termination of Gaussian 16 at Thu Dec 14 12:23:47 2023.
