 Gaussian 16, Revision C.02,
 Gaussian 16:  ES64L-G16RevC.02  7-Dec-2021

 ----------------------------------------------------------------------
 #p freq=raman scale=0.967 guess=read geom=allcheck b3lyp/6-311+G(d,p)
 int=grid=ultrafine EmpiricalDispersion=GD3BJ SCRF=(Solvent=ethanol) sc
 f=(xqc,intrep,maxconventionalcycle=350) nosymm
 ----------------------------------------------------------------------

 Structure from the checkpoint file:  "/scratch1/svicchi/G09-1734056.pbs02/02-freq/PyrMeOH-isolated-freq.chk"
 ----------------
 PyrMeOH-isolated
 ----------------
 Charge = -1 Multiplicity = 1

                          Input orientation:
 ---------------------------------------------------------------------
 Center     Atomic      Atomic             Coordinates (Angstroms)
 Number     Number       Type             X           Y           Z
 ---------------------------------------------------------------------
      1          6           0       -0.404625    0.759850    0.221981
      2          6           0       -1.260612   -0.185995   -0.362091
      3          6           0       -0.425016   -1.259456   -0.762247
      4          1           0       -2.335366   -0.112727   -0.471849
      5          6           0        0.877762   -0.894927   -0.388156
      6          7           0        0.892195    0.336914    0.212944
      7          1           0       -0.673400    1.716945    0.655781
      8          6           0        2.149996   -1.621617   -0.639641
      9          1           0       -0.721665   -2.176457   -1.256238
     10          1           0        1.964051   -2.667739   -0.890172
     11          1           0        2.799288   -1.586819    0.244490
     12          8           0        2.904855   -1.083953   -1.769818
     13          1           0        2.831316   -0.124909   -1.695463
 ---------------------------------------------------------------------

 SCF Done:  E(RB3LYP) =  -324.329961974     A.U. after    1 cycles

 Alpha  occ. eigenvalues --  -19.10919 -14.25094 -10.19801 -10.14161 -10.13998
 Alpha  occ. eigenvalues --  -10.12138 -10.12040  -1.00196  -0.89453  -0.71124
 Alpha  occ. eigenvalues --   -0.70590  -0.62685  -0.52532  -0.50721  -0.47505
 Alpha  occ. eigenvalues --   -0.44876  -0.41852  -0.39614  -0.35253  -0.34325
 Alpha  occ. eigenvalues --   -0.34231  -0.32473  -0.26972  -0.23563  -0.19845
 Alpha  occ. eigenvalues --   -0.17484
 Alpha virt. eigenvalues --    0.01234   0.02636   0.03345   0.04070   0.05392
 Alpha virt. eigenvalues --    0.05637   0.06762   0.07172   0.07667   0.07730
 Alpha virt. eigenvalues --    0.09061   0.09519   0.10005   0.13070   0.13479

 Mulliken charges:
               1
     1  C   -0.179326
     2  C   -0.279323
     3  C   -0.155339
     4  H    0.096313
     5  C    0.094771
     6  N   -0.375237
     7  H    0.089186
     8  C   -0.522308
     9  H    0.094222
    10  H    0.136095
    11  H    0.127825
    12  O   -0.379464
    13  H    0.252586
 Sum of Mulliken charges =  -1.00000

 Dipole moment (field-independent basis, Debye):
    X=             -3.8471    Y=              1.1953    Z=              1.9400  Tot=              4.4713
 Quadrupole moment (field-independent basis, Debye-Ang):
   XX=            -59.1254   YY=            -47.7756   ZZ=            -54.8087
   XY=              3.2981   XZ=              5.7742   YZ=             -3.8492

  Exact polarizability:     131.068      -6.262     111.128      -1.578      12.792      92.627
 Approx polarizability:     138.730      -4.575     122.466       0.999      15.894      97.936

                      1                      2                      3
                      A                      A                      A
 Frequencies --     61.1360               145.5947               276.8243
 Red. masses --      3.5334                 4.7354                 1.2105
 Frc consts  --      0.0078                 0.0591                 0.0547
 IR Inten    --      6.2599                 3.6488               141.4953
 Raman Activ --      4.4402                 8.9746                 4.1068

                      4                      5                      6
                      A                      A                      A
 Frequencies --    334.7581               425.8828               637.2458
 Red. masses --      2.0078                 5.2559                 3.3275
 Frc consts  --      0.1326                 0.5617                 0.7961
 IR Inten    --     46.4254                33.7759                13.2778
 Raman Activ --      1.8815                 9.7062                 2.0503

                      7                      8                      9
                      A                      A                      A
 Frequencies --    669.9012               703.4168               741.4326
 Red. masses --      4.8286                 1.2027                 1.6996
 Frc consts  --      1.2767                 0.3506                 0.5505
 IR Inten    --     16.4630               200.0548                11.1794
 Raman Activ --      8.0478                39.3472                29.3303

                     10                     11                     12
                      A                      A                      A
 Frequencies --    761.9956               823.1320               907.2975
 Red. masses --      2.6359                 1.3054                 5.4528
 Frc consts  --      0.9018                 0.5211                 2.6446
 IR Inten    --     16.9958                13.5878                44.6718
 Raman Activ --     25.4352                 4.6599                22.0397

                     13                     14                     15
                      A                      A                      A
 Frequencies --    911.8032               954.4820               968.6523
 Red. masses --      5.0507                 1.8082                 2.6884
 Frc consts  --      2.4740                 0.9706                 1.4862
 IR Inten    --    229.6365                26.0788                14.4313
 Raman Activ --     74.5016                11.9960                 6.2096

                     16                     17                     18
                      A                      A                      A
 Frequencies --   1026.9210              1090.4968              1161.4527
 Red. masses --      1.3344                 2.0433                 1.2846
 Frc consts  --      0.8291                 1.4317                 1.0210
 IR Inten    --     44.7965                31.4792                30.7925
 Raman Activ --      4.9459                52.6453                 5.9168

                     19                     20                     21
                      A                      A                      A
 Frequencies --   1209.7409              1269.4566              1313.3499
 Red. masses --      1.7825                 2.6097                 2.0487
 Frc consts  --      1.5369                 2.4779                 2.0820
 IR Inten    --     23.7103                 1.7295                14.6340
 Raman Activ --     20.8048                76.8742                30.9578

                     22                     23                     24
                      A                      A                      A
 Frequencies --   1328.2320              1391.2343              1410.5144
 Red. masses --      1.6647                 1.4060                 3.2635
 Frc consts  --      1.7304                 1.6034                 3.8255
 IR Inten    --      4.9559                83.2099                24.5604
 Raman Activ --     85.0602                42.3955               257.5944

                     25                     26                     27
                      A                      A                      A
 Frequencies --   1446.5590              1483.5019              1512.3390
 Red. masses --      2.5869                 1.2257                 3.5637
 Frc consts  --      3.1894                 1.5893                 4.8023
 IR Inten    --     46.7661                 9.7667                33.2525
 Raman Activ --     63.3317                30.6726                73.2894

                     28                     29                     30
                      A                      A                      A
 Frequencies --   2992.3210              3081.2524              3155.0540
 Red. masses --      1.0691                 1.0938                 1.0884
 Frc consts  --      5.6398                 6.1184                 6.3832
 IR Inten    --    142.9518                63.3770                35.3043
 Raman Activ --    391.4201               188.1319               234.8947

                     31                     32                     33
                      A                      A                      A
 Frequencies --   3176.1074              3195.5728              3798.1730
 Red. masses --      1.0910                 1.1025                 1.0663
 Frc consts  --      6.4844                 6.6333                 9.0632
 IR Inten    --     59.6418                46.8289                45.5521
 Raman Activ --    159.3998               385.5372               144.6188

 - Thermochemistry -
 -------------------
 Temperature   298.150 Kelvin.  Pressure   1.00000 Atm.
 Thermochemistry will use frequencies scaled by 0.9670.

 Molecular mass:    96.04494 amu.
 Principal axes and moments of inertia in atomic units:
                           1         2         3
     Eigenvalues --   262.03912 939.879411086.70555
           X            0.87849   0.46407   0.11359
           Y           -0.36159   0.80120  -0.47679
           Z           -0.31227   0.37779   0.87165
 This molecule is an asymmetric top.
 Rotational symmetry number  1.
 Rotational temperatures (Kelvin)      0.33054     0.09215     0.07970
 Rotational constants (GHZ):           6.88730     1.92018     1.66075
 Zero-point vibrational energy     256609.5 (Joules/Mol)
                                   61.33115 (Kcal/Mol)
 Warning -- explicit consideration of   6 degrees of freedom as
           vibrations may cause significant error
 Vibrational temperatures:     85.06   202.57   385.14   465.75   592.53
          (Kelvin)            886.60   932.03   978.66  1031.55  1060.16
                             1145.22  1262.32  1268.59  1327.97  1347.68
                             1428.75  1517.21  1615.93  1683.11  1766.19
                             1827.26  1847.97  1935.62  1962.44  2012.59
                             2063.99  2104.11  4163.21  4286.94  4389.62
                             4418.91  4445.99  5284.39

 Zero-point correction=                           0.097737 (Hartree/Particle)
 Thermal correction to Energy=                    0.104288
 Thermal correction to Enthalpy=                  0.105233
 Thermal correction to Gibbs Free Energy=         0.066895
 Sum of electronic and zero-point Energies=           -324.232225
 Sum of electronic and thermal Energies=              -324.225674
 Sum of electronic and thermal Enthalpies=            -324.224729
 Sum of electronic and thermal Free Energies=         -324.263067

                     E (Thermal)             CV                S
                      KCal/Mol        Cal/Mol-Kelvin    Cal/Mol-Kelvin
 Total                   65.442             23.876             80.687
 Electronic               0.000              0.000              0.000
 Translational            0.889              2.981             39.598
 Rotational               0.889              2.981             27.084
 Vibrational             63.664             17.915             14.006
 Vibration     1          0.596              1.974              4.486
 Vibration     2          0.615              1.912              2.793
 Vibration     3          0.673              1.732              1.611
 Vibration     4          0.708              1.628              1.291
 Vibration     5          0.776              1.445              0.920
 Vibration     6          0.976              0.998              0.423

 Optimization completed.
    -- Stationary point found.
 Normal termination of Gaussian 16 at Thu Dec 14 13:26:47 2023.
