 Gaussian 16, Revision C.02,
 Gaussian 16:  ES64L-G16RevC.02  7-Dec-2021

 ----------------------------------------------------------------------
 #p freq=raman scale=0.967 guess=read geom=allcheck b3lyp/6-311+G(d,p)
 int=grid=ultrafine EmpiricalDispersion=GD3BJ SCRF=(Solvent=ethanol) sc
 f=(xqc,intrep,maxconventionalcycle=350) nosymm
 ----------------------------------------------------------------------

 Structure from the checkpoint file:  "/scratch1/svicchi/G09-1868836.pbs02/02-freq/IMIDCOCH3-isolated-freq.chk"
 ------------------
 IMIDCOCH3-isolated
 ------------------
 Charge = -1 Multiplicity = 1

                          Input orientation:
 ---------------------------------------------------------------------
 Center     Atomic      Atomic             Coordinates (Angstroms)
 Number     Number       Type             X           Y           Z
 ---------------------------------------------------------------------
      1          6           0       -1.817657    3.792757   -0.210380
      2          7           0       -1.807066    2.424819   -0.172475
      3          6           0       -2.166202    2.062839   -1.421462
      4          6           0       -2.388084    3.220258   -2.188580
      5          1           0       -2.252846    1.025439   -1.718228
      6          7           0       -2.168490    4.309803   -1.424018
      7          1           0       -2.688023    3.296845   -3.226127
      8          6           0       -1.475158    4.611320    0.940009
      9          8           0       -1.491359    5.849172    0.916496
     10          6           0       -1.058252    3.902671    2.216304
     11          1           0       -1.288394    2.840207    2.195614
     12          1           0        0.022499    4.025164    2.344217
     13          1           0       -1.545558    4.384037    3.067210
 ---------------------------------------------------------------------

 SCF Done:  E(RB3LYP) =  -378.534524675     A.U. after    1 cycles

 Alpha  occ. eigenvalues --  -19.08725 -14.27770 -14.27590 -10.24051 -10.18043
 Alpha  occ. eigenvalues --  -10.16438 -10.16299 -10.15292  -1.01593  -0.96200
 Alpha  occ. eigenvalues --   -0.81700  -0.74278  -0.69554  -0.59403  -0.55278
 Alpha  occ. eigenvalues --   -0.49008  -0.47216  -0.43155  -0.42323  -0.41372
 Alpha  occ. eigenvalues --   -0.38876  -0.38474  -0.37024  -0.33804  -0.27973
 Alpha  occ. eigenvalues --   -0.24979  -0.24862  -0.23773  -0.20513
 Alpha virt. eigenvalues --   -0.03167   0.01214   0.02814   0.03936   0.04976
 Alpha virt. eigenvalues --    0.05061   0.05643   0.05951   0.07488   0.07779
 Alpha virt. eigenvalues --    0.08661   0.09024   0.09681   0.10356   0.11049

 Mulliken charges:
               1
     1  C    0.080679
     2  N   -0.285567
     3  C   -0.103871
     4  C   -0.071491
     5  H    0.110407
     6  N   -0.325904
     7  H    0.111195
     8  C    0.028653
     9  O   -0.463928
    10  C   -0.559789
    11  H    0.163022
    12  H    0.165850
    13  H    0.150743
 Sum of Mulliken charges =  -1.00000

 Dipole moment (field-independent basis, Debye):
    X=              9.0112    Y=            -21.9103    Z=              1.7149  Tot=             23.7530
 Quadrupole moment (field-independent basis, Debye-Ang):
   XX=            -67.6441   YY=           -164.8848   ZZ=            -52.3743
   XY=             40.8683   XZ=             -3.3452   YZ=              7.1047

  Exact polarizability:      77.212       7.541     138.505      21.922      26.924     143.362
 Approx polarizability:      85.679       8.582     164.454      22.923      31.138     155.809

                      1                      2                      3
                      A                      A                      A
 Frequencies --     49.3527               101.0491               194.9426
 Red. masses --      1.1620                 3.2831                 4.9910
 Frc consts  --      0.0017                 0.0198                 0.1118
 IR Inten    --      2.8022                 3.6325                 5.7625
 Raman Activ --      3.3171                 1.8090                 6.7964

                      4                      5                      6
                      A                      A                      A
 Frequencies --    238.8045               400.5614               520.9388
 Red. masses --      4.3508                 4.3105                 7.2169
 Frc consts  --      0.1462                 0.4075                 1.1539
 IR Inten    --     17.4306                 3.2809                16.6687
 Raman Activ --      0.6559                 3.6094                14.7772

                      7                      8                      9
                      A                      A                      A
 Frequencies --    590.7231               633.2134               667.0681
 Red. masses --      3.0776                 3.6821                 3.3911
 Frc consts  --      0.6328                 0.8698                 0.8891
 IR Inten    --     14.5296                54.2272                 0.6733
 Raman Activ --      1.7442                15.4045                 0.1839

                     10                     11                     12
                      A                      A                      A
 Frequencies --    744.2605               807.4090               859.7547
 Red. masses --      6.4542                 1.2347                 1.4314
 Frc consts  --      2.1064                 0.4742                 0.6234
 IR Inten    --      0.3214                83.0269                 0.4044
 Raman Activ --      0.6224                40.7473                 5.2467

                     13                     14                     15
                      A                      A                      A
 Frequencies --    942.5590               951.8907               991.1770
 Red. masses --      4.3042                 7.3309                 1.9638
 Frc consts  --      2.2530                 3.9136                 1.1367
 IR Inten    --    139.4649                27.0437                14.1679
 Raman Activ --     81.8579                24.9182                 9.3976

                     16                     17                     18
                      A                      A                      A
 Frequencies --   1038.5167              1079.7236              1141.6806
 Red. masses --      1.7816                 1.6543                 3.4919
 Frc consts  --      1.1321                 1.1363                 2.6817
 IR Inten    --     11.1439                33.6830                84.5813
 Raman Activ --      8.5368                88.8643               133.8217

                     19                     20                     21
                      A                      A                      A
 Frequencies --   1188.9999              1230.7896              1314.9787
 Red. masses --      1.6296                 9.5306                11.3744
 Frc consts  --      1.3573                 8.5063                11.5882
 IR Inten    --     58.5429               245.6769                25.8797
 Raman Activ --      5.3001               340.5699                20.5276

                     22                     23                     24
                      A                      A                      A
 Frequencies --   1368.1821              1398.5895              1441.2181
 Red. masses --      1.2847                 2.8024                 2.7507
 Frc consts  --      1.4169                 3.2297                 3.3663
 IR Inten    --     17.4179               369.3864                34.1320
 Raman Activ --     41.4519               318.1597               117.3940

                     25                     26                     27
                      A                      A                      A
 Frequencies --   1448.9896              1472.7304              1475.9080
 Red. masses --      1.7331                 1.0544                 2.2551
 Frc consts  --      2.1438                 1.3475                 2.8942
 IR Inten    --     65.0720                16.5727                86.0023
 Raman Activ --     21.0989                11.3376                 8.4471

                     28                     29                     30
                      A                      A                      A
 Frequencies --   1632.2076              3030.8042              3089.0125
 Red. masses --     10.1950                 1.0413                 1.0963
 Frc consts  --     16.0025                 5.6357                 6.1635
 IR Inten    --    958.8913                24.0348                25.8742
 Raman Activ --    575.2965               540.4266               207.4311

                     31                     32                     33
                      A                      A                      A
 Frequencies --   3152.8818              3180.5623              3200.7128
 Red. masses --      1.0995                 1.0886                 1.1017
 Frc consts  --      6.4397                 6.4880                 6.6498
 IR Inten    --     11.2721                16.4368                67.1133
 Raman Activ --     80.9627               220.2523               375.4773

 - Thermochemistry -
 -------------------
 Temperature   298.150 Kelvin.  Pressure   1.00000 Atm.
 Thermochemistry will use frequencies scaled by 0.9670.

 Molecular mass:   109.04019 amu.
 Principal axes and moments of inertia in atomic units:
                           1         2         3
     Eigenvalues --   360.474191082.300381431.49001
           X            0.24312  -0.15629   0.95732
           Y            0.52416   0.85160   0.00592
           Z            0.81618  -0.50035  -0.28897
 This molecule is an asymmetric top.
 Rotational symmetry number  1.
 Rotational temperatures (Kelvin)      0.24028     0.08003     0.06051
 Rotational constants (GHZ):           5.00658     1.66750     1.26074
 Zero-point vibrational energy     240497.5 (Joules/Mol)
                                   57.48029 (Kcal/Mol)
 Warning -- explicit consideration of   8 degrees of freedom as
           vibrations may cause significant error
 Vibrational temperatures:     68.66   140.59   271.22   332.25   557.30
          (Kelvin)            724.78   821.87   880.99   928.09  1035.49
                             1123.35  1196.17  1311.38  1324.36  1379.02
                             1444.89  1502.22  1588.42  1654.25  1712.39
                             1829.53  1903.55  1945.85  2005.16  2015.98
                             2049.01  2053.43  2270.89  4216.75  4297.73
                             4386.60  4425.11  4453.14

 Zero-point correction=                           0.091601 (Hartree/Particle)
 Thermal correction to Energy=                    0.098712
 Thermal correction to Enthalpy=                  0.099656
 Thermal correction to Gibbs Free Energy=         0.059353
 Sum of electronic and zero-point Energies=           -378.442924
 Sum of electronic and thermal Energies=              -378.435813
 Sum of electronic and thermal Enthalpies=            -378.434869
 Sum of electronic and thermal Free Energies=         -378.475172

                     E (Thermal)             CV                S
                      KCal/Mol        Cal/Mol-Kelvin    Cal/Mol-Kelvin
 Total                   61.943             25.095             84.825
 Electronic               0.000              0.000              0.000
 Translational            0.889              2.981             39.976
 Rotational               0.889              2.981             27.815
 Vibrational             60.165             19.133             17.034
 Vibration     1          0.595              1.978              4.910
 Vibration     2          0.603              1.951              3.499
 Vibration     3          0.633              1.856              2.242
 Vibration     4          0.653              1.794              1.872
 Vibration     5          0.756              1.497              1.010
 Vibration     6          0.859              1.242              0.649
 Vibration     7          0.927              1.093              0.502
 Vibration     8          0.972              1.006              0.429

 Normal termination of Gaussian 16 at Thu Jan 11 12:00:43 2024.
