 Gaussian 16, Revision C.02,
 Gaussian 16:  ES64L-G16RevC.02  7-Dec-2021

 ----------------------------------------------------------------------
 #p freq=raman scale=0.967 guess=read geom=allcheck b3lyp/6-311+G(d,p)
 int=grid=ultrafine EmpiricalDispersion=GD3BJ SCRF=(Solvent=ethanol) sc
 f=(xqc,intrep,maxconventionalcycle=350) nosymm
 ----------------------------------------------------------------------

 Structure from the checkpoint file:  "/scratch1/svicchi/G09-1868846.pbs02/02-freq/IMIDCOOCH3-isolated-freq.chk"
 -------------------
 IMIDCOOCH3-isolated
 -------------------
 Charge = -1 Multiplicity = 1

                          Input orientation:
 ---------------------------------------------------------------------
 Center     Atomic      Atomic             Coordinates (Angstroms)
 Number     Number       Type             X           Y           Z
 ---------------------------------------------------------------------
      1          6           0       -1.902542    3.788238   -0.174673
      2          7           0       -1.913596    2.430636   -0.086826
      3          6           0       -2.209349    2.033348   -1.347374
      4          6           0       -2.367349    3.164207   -2.160487
      5          1           0       -2.294242    0.987515   -1.613124
      6          7           0       -2.173254    4.277381   -1.414563
      7          1           0       -2.604947    3.215609   -3.215175
      8          6           0       -1.627219    4.678698    0.948086
      9          8           0       -1.630328    5.901725    0.906829
     10          8           0       -1.352944    4.010334    2.099202
     11          6           0       -1.077211    4.823960    3.249744
     12          1           0       -0.889191    4.124657    4.061642
     13          1           0       -0.199701    5.450063    3.080828
     14          1           0       -1.931398    5.459067    3.489431
 ---------------------------------------------------------------------

 SCF Done:  E(RB3LYP) =  -453.787050361     A.U. after    1 cycles

 Alpha  occ. eigenvalues --  -19.15516 -19.09627 -14.27591 -14.27566 -10.28736
 Alpha  occ. eigenvalues --  -10.21458 -10.18593 -10.16130 -10.16077  -1.09357
 Alpha  occ. eigenvalues --   -1.00334  -0.96298  -0.81518  -0.74563  -0.69328
 Alpha  occ. eigenvalues --   -0.59966  -0.55628  -0.53420  -0.48327  -0.47500
 Alpha  occ. eigenvalues --   -0.46513  -0.44190  -0.40808  -0.39828  -0.38782
 Alpha  occ. eigenvalues --   -0.37023  -0.35167  -0.29998  -0.27986  -0.27492
 Alpha  occ. eigenvalues --   -0.24604  -0.24451  -0.20454
 Alpha virt. eigenvalues --   -0.01700   0.01092   0.02306   0.03952   0.04138
 Alpha virt. eigenvalues --    0.04947   0.05245   0.06041   0.06488   0.06807
 Alpha virt. eigenvalues --    0.07896   0.08579   0.10391   0.10734   0.11780

 Mulliken charges:
               1
     1  C    0.377220
     2  N   -0.387170
     3  C   -0.105890
     4  C   -0.117621
     5  H    0.108973
     6  N   -0.355274
     7  H    0.109481
     8  C   -0.371095
     9  O   -0.398273
    10  O   -0.176039
    11  C   -0.156291
    12  H    0.158680
    13  H    0.156541
    14  H    0.156758
 Sum of Mulliken charges =  -1.00000

 Dipole moment (field-independent basis, Debye):
    X=              9.5630    Y=            -19.6531    Z=              2.6802  Tot=             22.0200
 Quadrupole moment (field-independent basis, Debye-Ang):
   XX=            -74.6098   YY=           -150.7929   ZZ=            -52.0164
   XY=             40.0702   XZ=             -3.9413   YZ=             15.8448

  Exact polarizability:      77.866       6.003     136.554      17.343      21.181     147.139
 Approx polarizability:      85.603       5.633     160.010      17.642      18.743     156.498

                      1                      2                      3
                      A                      A                      A
 Frequencies --     76.0620               109.2412               152.2597
 Red. masses --      5.3422                 2.6168                 1.2533
 Frc consts  --      0.0182                 0.0184                 0.0171
 IR Inten    --      2.5071                 8.8449                 0.6349
 Raman Activ --      2.3959                 1.4193                 2.5315

                      4                      5                      6
                      A                      A                      A
 Frequencies --    177.6834               229.8966               333.6331
 Red. masses --      4.4943                 5.6392                 4.6595
 Frc consts  --      0.0836                 0.1756                 0.3056
 IR Inten    --     11.8822                 0.5573                19.1087
 Raman Activ --      0.4775                 5.4547                 1.0257

                      7                      8                      9
                      A                      A                      A
 Frequencies --    410.9132               509.5407               665.4482
 Red. masses --      6.8924                 9.9713                 3.4150
 Frc consts  --      0.6857                 1.5253                 0.8910
 IR Inten    --      7.9830                 5.3977                 0.2914
 Raman Activ --      8.2954                 3.0177                 0.0362

                     10                     11                     12
                      A                      A                      A
 Frequencies --    693.2678               792.2892               805.3165
 Red. masses --     12.2140                 1.5284                 5.6090
 Frc consts  --      3.4587                 0.5653                 2.1432
 IR Inten    --     26.7645                97.9417                16.1308
 Raman Activ --      0.0866                20.7330                37.0687

                     13                     14                     15
                      A                      A                      A
 Frequencies --    810.1771               852.6434               946.6439
 Red. masses --      3.7436                 1.4171                 6.3753
 Frc consts  --      1.4478                 0.6070                 3.3661
 IR Inten    --      4.8342                 0.0177               111.4350
 Raman Activ --     16.7536                 6.3675                79.8026

                     16                     17                     18
                      A                      A                      A
 Frequencies --    952.3132              1009.3398              1084.3632
 Red. masses --      7.2751                 4.3016                 1.9178
 Frc consts  --      3.8873                 2.5820                 1.3286
 IR Inten    --     14.2233                32.7764               173.9723
 Raman Activ --     28.1187                 0.6936               153.6205

                     19                     20                     21
                      A                      A                      A
 Frequencies --   1156.3642              1166.4942              1183.1474
 Red. masses --      6.2588                 1.2803                 1.6236
 Frc consts  --      4.9309                 1.0264                 1.3391
 IR Inten    --    686.2167                 2.0699                42.6746
 Raman Activ --     51.6901                 4.5195                 8.4744

                     22                     23                     24
                      A                      A                      A
 Frequencies --   1196.4763              1238.8650              1328.1682
 Red. masses --      1.6284                 7.0480                10.8866
 Frc consts  --      1.3735                 6.3733                11.3149
 IR Inten    --    114.5220                51.8749                24.7107
 Raman Activ --    133.9858               160.7978                22.1514

                     25                     26                     27
                      A                      A                      A
 Frequencies --   1391.8165              1440.2988              1447.7704
 Red. masses --      3.8956                 2.9006                 2.6295
 Frc consts  --      4.4462                 3.5452                 3.2473
 IR Inten    --    326.5790                70.9233                17.0327
 Raman Activ --    445.5257                91.7247                12.6676

                     28                     29                     30
                      A                      A                      A
 Frequencies --   1472.7873              1473.5303              1489.9847
 Red. masses --      1.3290                 1.1499                 1.0797
 Frc consts  --      1.6985                 1.4711                 1.4122
 IR Inten    --     78.3706                38.8601                 7.1452
 Raman Activ --     17.6152                20.0813                12.0862

                     31                     32                     33
                      A                      A                      A
 Frequencies --   1683.4013              3043.7103              3112.7893
 Red. masses --     11.5599                 1.0301                 1.1068
 Frc consts  --     19.3011                 5.6228                 6.3187
 IR Inten    --    965.0119                63.9047                39.5482
 Raman Activ --    530.5483               352.6433               124.6831

                     34                     35                     36
                      A                      A                      A
 Frequencies --   3148.6291              3182.8753              3203.2295
 Red. masses --      1.1050                 1.0884                 1.1021
 Frc consts  --      6.4544                 6.4962                 6.6626
 IR Inten    --     26.9768                15.5879                61.9761
 Raman Activ --    137.8060               207.0590               347.9206

 - Thermochemistry -
 -------------------
 Temperature   298.150 Kelvin.  Pressure   1.00000 Atm.
 Thermochemistry will use frequencies scaled by 0.9670.

 Molecular mass:   125.03510 amu.
 Principal axes and moments of inertia in atomic units:
                           1         2         3
     Eigenvalues --   380.191311645.285752014.00161
           X            0.21055  -0.08968   0.97346
           Y            0.44864   0.89359  -0.01471
           Z            0.86856  -0.43983  -0.22838
 This molecule is an asymmetric top.
 Rotational symmetry number  1.
 Rotational temperatures (Kelvin)      0.22782     0.05264     0.04301
 Rotational constants (GHZ):           4.74693     1.09692     0.89610
 Zero-point vibrational energy     254328.0 (Joules/Mol)
                                   60.78584 (Kcal/Mol)
 Warning -- explicit consideration of   8 degrees of freedom as
           vibrations may cause significant error
 Vibrational temperatures:    105.82   151.99   211.84   247.21   319.85
          (Kelvin)            464.18   571.70   708.92   925.84   964.54
                             1102.31  1120.43  1127.20  1186.28  1317.06
                             1324.95  1404.29  1508.67  1608.85  1622.94
                             1646.11  1664.65  1723.63  1847.88  1936.43
                             2003.88  2014.28  2049.08  2050.12  2073.01
                             2342.11  4234.71  4330.82  4380.68  4428.33
                             4456.64

 Zero-point correction=                           0.096868 (Hartree/Particle)
 Thermal correction to Energy=                    0.104852
 Thermal correction to Enthalpy=                  0.105796
 Thermal correction to Gibbs Free Energy=         0.063578
 Sum of electronic and zero-point Energies=           -453.690182
 Sum of electronic and thermal Energies=              -453.682199
 Sum of electronic and thermal Enthalpies=            -453.681255
 Sum of electronic and thermal Free Energies=         -453.723472

                     E (Thermal)             CV                S
                      KCal/Mol        Cal/Mol-Kelvin    Cal/Mol-Kelvin
 Total                   65.795             28.069             88.854
 Electronic               0.000              0.000              0.000
 Translational            0.889              2.981             40.384
 Rotational               0.889              2.981             28.623
 Vibrational             64.018             22.107             19.847
 Vibration     1          0.599              1.966              4.056
 Vibration     2          0.605              1.945              3.348
 Vibration     3          0.617              1.906              2.708
 Vibration     4          0.626              1.877              2.415
 Vibration     5          0.648              1.807              1.940
 Vibration     6          0.708              1.630              1.297
 Vibration     7          0.764              1.476              0.972
 Vibration     8          0.848              1.266              0.677

 Optimization completed.
    -- Stationary point found.
 Normal termination of Gaussian 16 at Thu Jan 11 13:28:43 2024.
