 Gaussian 16, Revision C.01,
 Gaussian 16:  ES64L-G16RevC.01  3-Jul-2019

 ----------------------------------------------------------------------
 #p freq=raman scale=0.967 pop=(nbo,full,hirshfeld) guess=read geom=all
 check b3lyp/6-311+G(d,p) int=grid=ultrafine EmpiricalDispersion=GD3BJ
 SCRF=(Solvent=ethanol) scf=(xqc,intrep,maxconventionalcycle=350) nosym
 m
 ----------------------------------------------------------------------

 Structure from the checkpoint file:  "/scratch1/svicchi/G09-659793.pbs02/02-freq/IMID-isolated-freq.chk"
 -----------------
 IMID-isolated.gjf
 -----------------
 Charge = -1 Multiplicity = 1

                          Input orientation:
 ---------------------------------------------------------------------
 Center     Atomic      Atomic             Coordinates (Angstroms)
 Number     Number       Type             X           Y           Z
 ---------------------------------------------------------------------
      1          6           0       -2.261894    3.428023    0.322195
      2          7           0       -1.230068    2.600989    0.053058
      3          6           0       -1.845154    1.491830   -0.479538
      4          6           0       -3.216427    1.704661   -0.504969
      5          1           0       -1.280668    0.627423   -0.804961
      6          7           0       -3.485285    2.951138    0.011040
      7          1           0       -4.004156    1.050132   -0.855418
      8          1           0       -2.117531    4.409807    0.759056
 ---------------------------------------------------------------------

 SCF Done:  E(RB3LYP) =  -225.816523714     A.U. after    1 cycles

 Alpha  occ. eigenvalues --  -14.25883 -14.25880 -10.16560 -10.14527 -10.14471
 Alpha  occ. eigenvalues --   -0.94335  -0.79365  -0.68469  -0.53576  -0.52762
 Alpha  occ. eigenvalues --   -0.46055  -0.37733  -0.37430  -0.36191  -0.26821
 Alpha  occ. eigenvalues --   -0.23322  -0.22861  -0.19009
 Alpha virt. eigenvalues --    0.01899   0.03972   0.04452   0.04644   0.06511
 Alpha virt. eigenvalues --    0.06542   0.06586   0.08395   0.08618   0.10119
 Alpha virt. eigenvalues --    0.11514   0.11952   0.14472   0.15798   0.16946

 Mulliken charges:
               1
     1  C   -0.081820
     2  N   -0.410126
     3  C   -0.202452
     4  C   -0.202499
     5  H    0.102168
     6  N   -0.410265
     7  H    0.102159
     8  H    0.102836
 Sum of Mulliken charges =  -1.00000

 Dipole moment (field-independent basis, Debye):
    X=             11.3339    Y=            -13.2718    Z=             -0.1267  Tot=             17.4532
 Quadrupole moment (field-independent basis, Debye-Ang):
   XX=            -70.9774   YY=            -68.7826   ZZ=            -34.7164
   XY=             33.2159   XZ=              0.3625   YZ=              1.2363

  Exact polarizability:      86.825      -1.449      79.073       2.172      10.628      58.995
 Approx polarizability:      97.502      -1.846      87.517       2.691      13.121      62.725

 Summary of Natural Population Analysis:

                                       Natural Population
                Natural  -----------------------------------------------
    Atom  No    Charge         Core      Valence    Rydberg      Total
 -----------------------------------------------------------------------
      C    1    0.09803      1.99943     3.85442    0.04812     5.90197
      N    2   -0.64976      1.99950     5.62080    0.02946     7.64976
      C    3   -0.16241      1.99922     4.12979    0.03340     6.16241
      C    4   -0.16242      1.99922     4.12980    0.03340     6.16242
      H    5    0.18205      0.00000     0.81630    0.00165     0.81795
      N    6   -0.64982      1.99950     5.62086    0.02946     7.64982
      H    7    0.18206      0.00000     0.81629    0.00165     0.81794
      H    8    0.16227      0.00000     0.83620    0.00153     0.83773
 =======================================================================
   * Total *   -1.00000      9.99687    25.82448    0.17866    36.00000

                      1                      2                      3
                      A                      A                      A
 Frequencies --    666.7399               696.2747               751.4870
 Red. masses --      3.6000                 3.2098                 1.2141
 Frc consts  --      0.9429                 0.9168                 0.4040
 IR Inten    --      0.0038                43.2635               108.7512
 Raman Activ --      0.0363                 0.0008                19.9772

                      4                      5                      6
                      A                      A                      A
 Frequencies --    817.1243               819.0384               935.0735
 Red. masses --      1.3753                 1.4613                 6.8554
 Frc consts  --      0.5410                 0.5776                 3.5316
 IR Inten    --      0.0114                34.1267                26.0936
 Raman Activ --     16.7247                 9.6819                 0.8731

                      7                      8                      9
                      A                      A                      A
 Frequencies --    941.2755              1093.3234              1095.9183
 Red. masses --      5.0955                 1.4340                 1.7066
 Frc consts  --      2.6600                 1.0100                 1.2077
 IR Inten    --      4.6151                 9.7974               100.5817
 Raman Activ --      2.4780                13.7577                 5.4610

                     10                     11                     12
                      A                      A                      A
 Frequencies --   1175.6461              1233.5811              1255.6572
 Red. masses --      8.3310                 1.9802                 8.2658
 Frc consts  --      6.7843                 1.7754                 7.6786
 IR Inten    --      9.3865                13.6691                 7.4798
 Raman Activ --     65.0379                 6.3732               105.9290

                     13                     14                     15
                      A                      A                      A
 Frequencies --   1312.3253              1456.5979              1468.6149
 Red. masses --      2.0643                 3.4176                 2.5106
 Frc consts  --      2.0946                 4.2722                 3.1904
 IR Inten    --      2.3193                 2.2757                89.9669
 Raman Activ --     43.7409                79.7151                 9.9579

                     16                     17                     18
                      A                      A                      A
 Frequencies --   3170.3236              3177.5350              3200.3882
 Red. masses --      1.0919                 1.0870                 1.1034
 Frc consts  --      6.4659                 6.4665                 6.6588
 IR Inten    --     57.3812                18.0359                50.0311
 Raman Activ --    154.6444               187.8575               303.8557

 - Thermochemistry -
 -------------------
 Temperature   298.150 Kelvin.  Pressure   1.00000 Atm.
 Thermochemistry will use frequencies scaled by 0.9670.

 Molecular mass:    67.02962 amu.
 Principal axes and moments of inertia in atomic units:
                           1         2         3
     Eigenvalues --   178.41089 185.22271 363.63360
           X            0.98800   0.13301  -0.07846
           Y           -0.15333   0.90547  -0.39574
           Z            0.01841   0.40302   0.91500
 This molecule is an asymmetric top.
 Rotational symmetry number  1.
 Rotational temperatures (Kelvin)      0.48547     0.46762     0.23819
 Rotational constants (GHZ):          10.11565     9.74363     4.96308
 Zero-point vibrational energy     146142.5 (Joules/Mol)
                                   34.92889 (Kcal/Mol)
 Vibrational temperatures:    927.63   968.73  1045.54  1136.86  1139.53
          (Kelvin)           1300.97  1309.59  1521.14  1524.75  1635.67
                             1716.28  1746.99  1825.83  2026.56  2043.28
                             4410.86  4420.90  4452.69

 Zero-point correction=                           0.055663 (Hartree/Particle)
 Thermal correction to Energy=                    0.059266
 Thermal correction to Enthalpy=                  0.060210
 Thermal correction to Gibbs Free Energy=         0.029531
 Sum of electronic and zero-point Energies=           -225.760861
 Sum of electronic and thermal Energies=              -225.757258
 Sum of electronic and thermal Enthalpies=            -225.756314
 Sum of electronic and thermal Free Energies=         -225.786993

                     E (Thermal)             CV                S
                      KCal/Mol        Cal/Mol-Kelvin    Cal/Mol-Kelvin
 Total                   37.190             12.528             64.569
 Electronic               0.000              0.000              0.000
 Translational            0.889              2.981             38.526
 Rotational               0.889              2.981             24.000
 Vibrational             35.412              6.567              2.043

 Optimization completed.
    -- Stationary point found.
 Normal termination of Gaussian 16 at Fri Jun  2 11:12:08 2023.
